********************************************************************************
*                       GENERAL UTILITY LATTICE PROGRAM                        *
*                                 Julian Gale                                  *
*                       Curtin Institute for Computation                       *
*                    School of Molecular and Life Sciences                     *
*                    Curtin University, Western Australia                      *
********************************************************************************
* Version = 5.2.0 * Last modified =  10th September 2020                       *
********************************************************************************
*  fit          - perform fitting run                                          *
*  optimise     - perform optimisation run after fitting                       *
*  conp         - constant pressure calculation                                *
*  phonon       - calculate phonons for final geometry                         *
*  relax        - relax structure during fitting                               *
*  compare      - compare initial and final structures                         *
********************************************************************************

  Job Started  at 21:50.41  7th December   2020                               

  Number of CPUs =     1


  Total number of configurations input =      1

********************************************************************************
*  Input for Configuration =   1 : ex02                                        *
********************************************************************************

  Formula = Si3O6                                                       

  Number of irreducible atoms/shells =       3


  Total number atoms/shells =      15

  Dimensionality = 3               :  Bulk   


  Symmetry :

  Crystal family                   :  Hexagonal   
  Crystal class  (Groth - 1921)    :  Trigonal Trapezohedral               

  Space group (noncentrosymmetric) :  P 31 2 1        

  Patterson group                  :  P -3 m 1 

  Cartesian lattice vectors (Angstroms) :

        4.914730    0.000000    0.000000
       -2.457365    4.256281    0.000000
        0.000000    0.000000    5.406570

  Cell parameters (Angstroms/Degrees):

  a =       4.9147    alpha =  90.0000
  b =       4.9147    beta  =  90.0000
  c =       5.4066    gamma = 120.0000

  Initial cell volume =         113.097184 Angs**3

  Temperature of configuration =   0.00     K 

  Pressure of configuration =         0.000 GPa 

  Fractional coordinates of asymmetric unit :

--------------------------------------------------------------------------------
   No.  Atomic       x           y          z         Charge      Occupancy
        Label      (Frac)      (Frac)     (Frac)        (e)         (Frac)  
--------------------------------------------------------------------------------
      1 Si    c    0.468200 *  0.000000    0.333333     4.00000    1.000000    
      2 O     c    0.413100 *  0.266100 *  0.213100 *   0.86902    1.000000    
      3 O     s    0.431813 *  0.264902 *  0.204106 *  -2.86902    1.000000    
--------------------------------------------------------------------------------


  Constraints : 

--------------------------------------------------------------------------------
  Constraint no.      Unconstrained     Constrained    Coefficient    Offset
                         Variable         Variable
--------------------------------------------------------------------------------
           1              Strain 1        Strain 2       1.00000      0.0000
--------------------------------------------------------------------------------

  Brillouin zone sampling points :

--------------------------------------------------------------------------------
  Point number          x          y          z            Weight
--------------------------------------------------------------------------------
        1           0.000000   0.000000   0.000000     1.00000000
--------------------------------------------------------------------------------


********************************************************************************
*  General input information                                                   *
********************************************************************************

  Species output for all configurations : 

--------------------------------------------------------------------------------
  Species    Type    Atomic    Atomic    Charge       Radii (Angs)     Library
                     Number     Mass       (e)     Cova   Ionic  VDW   Symbol
--------------------------------------------------------------------------------
    Si       Core       14      28.09   4.000000   1.200  0.000  2.100          
    O        Core        8      16.00   0.869020   0.730  0.000  1.360          
    O        Shell       8       0.00  -2.869020   0.730  0.000  1.360          
--------------------------------------------------------------------------------


  Lattice summation method               =    Ewald          (3-D)
                                         =    Parry          (2-D)
                                         =    Saunders et al (1-D)
  Accuracy factor for lattice sums       =   12.000


  Analytic derivatives to be used

  Time limit = Infinity

  Maximum range for interatomic potentials =    100000.000000 Angstroms

  General interatomic potentials :

--------------------------------------------------------------------------------
Atom  Types   Potential      Parameter       Value         Units   Cutoffs(Ang)
  1     2                                                            Min /  Max 
--------------------------------------------------------------------------------
Si   c O    s General       General A        1283.0377    eV*Ang^m  0.000  8.000
                            General rho     0.32050000    Ang       
                            General C        10.660000    eV*Ang^n  
                            Exponent m         0          None
                            Exponent n         6          None
--------------------------------------------------------------------------------
O    s O    s Buckingham    Buckingham A     22764.000    eV        0.000  8.000
                            Buckingham rho  0.14900000    Ang       
                            Buckingham C     27.880000    eV*Ang^6  
--------------------------------------------------------------------------------
O    c O    s Spring (c-s)  Spring k 2       74.920000    eV*Ang^-2 0.000  0.800
                            Spring k 4       0.0000000    eV*Ang^-4 
--------------------------------------------------------------------------------

  Potentials with energy / gradient boundary corrections : 

--------------------------------------------------------------------------------
    Potential       Atom1   Atom2    Type of correction
--------------------------------------------------------------------------------
    General  0  6   Si    c O     s  Gradient
--------------------------------------------------------------------------------

  General Three-body potentials :

--------------------------------------------------------------------------------
  Atoms       Potential      Parameter       Value         Units   Cutoffs(Ang)
  1 / 2 / 3                                                          Min /  Max 
--------------------------------------------------------------------------------
Si    core    Harmonic      Three-body cnst  2.0972400    eV*rad^-2 0.000  1.800
O     shel                  Three-body angl  109.47000    degrees   0.000  1.800
O     shel                  Three-body k4    0.0000000    eV*rad^-4 0.000  3.200
                            Three-body k3    0.0000000    eV*rad^-3 
--------------------------------------------------------------------------------


  Number of variables   =    5
  Number of observables =    6

--------------------------------------------------------------------------------
   Observable no.  Type           Observable    Weight       Reference  Confign 
--------------------------------------------------------------------------------
          1        Structure         0.468200    10000.0000    1 x         1
          2        Structure         0.413100    10000.0000    2 x         1
          3        Structure         0.266100    10000.0000    2 y         1
          4        Structure         0.213100    10000.0000    2 z         1
          5        Structure         4.914730     1000.0000    a           1
          6        Structure         5.406570     1000.0000    c           1
--------------------------------------------------------------------------------

  Variables :

--------------------------------------------------------------------------------
     Parameter No.       Parameter Value          Parameter Type  Species
--------------------------------------------------------------------------------
             1               1283.037674          General A      
             2                  0.320500          General rho    
             3              22764.000000          Buckingham A   
             4                  0.149000          Buckingham rho 
             5                 74.920000          Spring k 2     
--------------------------------------------------------------------------------

  Symmetry constraints used for fitting
  First derivatives of residuals to be used in fitting

  Maximum no. of cycles   =       5000
  Maximum step size       =  1000.0000
  Tolerance on parameters =  0.0000100
  Tolerance on function   =  0.0000100
  Tolerance on gradient   =  0.0001000
  Differencing interval   =  0.0001000

  Start of fitting :

  Cycle:      0  Sum sqs:      12.315723  Gnorm:   3650.050667  CPU:    0.125
  ** Hessian calculated **
  Cycle:      1  Sum sqs:       0.640871  Gnorm:    105.408157  CPU:    0.250
  Cycle:      2  Sum sqs:       0.161338  Gnorm:     20.810507  CPU:    0.344
  Cycle:      3  Sum sqs:       0.160927  Gnorm:      0.923328  CPU:    0.453
  Cycle:      4  Sum sqs:       0.160900  Gnorm:      0.748037  CPU:    0.562
  Cycle:      5  Sum sqs:       0.160873  Gnorm:      0.592148  CPU:    0.656
  Cycle:      6  Sum sqs:       0.159775  Gnorm:     21.502634  CPU:    0.781
  Cycle:      7  Sum sqs:       0.158525  Gnorm:     33.791207  CPU:    0.906
  Cycle:      8  Sum sqs:       0.157009  Gnorm:     50.337710  CPU:    1.000
  Cycle:      9  Sum sqs:       0.154474  Gnorm:     67.432471  CPU:    1.125
  Cycle:     10  Sum sqs:       0.152967  Gnorm:     23.638085  CPU:    1.234
  Cycle:     11  Sum sqs:       0.149984  Gnorm:     22.184488  CPU:    1.375
  Cycle:     12  Sum sqs:       0.145251  Gnorm:     47.318612  CPU:    1.516
  Cycle:     13  Sum sqs:       0.142212  Gnorm:     75.641782  CPU:    1.656
  Cycle:     14  Sum sqs:       0.137595  Gnorm:     37.201450  CPU:    1.750
  Cycle:     15  Sum sqs:       0.134218  Gnorm:     64.751136  CPU:    1.875
  Cycle:     16  Sum sqs:       0.126361  Gnorm:     71.814778  CPU:    2.000
  Cycle:     17  Sum sqs:       0.122093  Gnorm:      5.526735  CPU:    2.109
  Cycle:     18  Sum sqs:       0.120754  Gnorm:      8.478532  CPU:    2.266
  Cycle:     19  Sum sqs:       0.118042  Gnorm:     18.184701  CPU:    2.422
  Cycle:     20  Sum sqs:       0.115178  Gnorm:     43.030190  CPU:    2.562
  ** Hessian calculated **
  Cycle:     21  Sum sqs:       0.113760  Gnorm:      2.302612  CPU:    2.766
  Cycle:     22  Sum sqs:       0.110869  Gnorm:     18.038631  CPU:    2.891
  Cycle:     23  Sum sqs:       0.110061  Gnorm:     12.706921  CPU:    3.031
  Cycle:     24  Sum sqs:       0.108596  Gnorm:      6.729603  CPU:    3.172
  Cycle:     25  Sum sqs:       0.106618  Gnorm:     11.396096  CPU:    3.312
  Cycle:     26  Sum sqs:       0.105568  Gnorm:     32.749612  CPU:    3.422
  Cycle:     27  Sum sqs:       0.104614  Gnorm:      7.579933  CPU:    3.547
  Cycle:     28  Sum sqs:       0.104313  Gnorm:      7.224856  CPU:    3.672
  Cycle:     29  Sum sqs:       0.104218  Gnorm:      0.515982  CPU:    3.797
  Cycle:     30  Sum sqs:       0.104207  Gnorm:      1.042655  CPU:    3.922
  Cycle:     31  Sum sqs:       0.104138  Gnorm:      6.168496  CPU:    4.047
  Cycle:     32  Sum sqs:       0.103284  Gnorm:     12.886152  CPU:    4.188
  Cycle:     33  Sum sqs:       0.102473  Gnorm:     27.281337  CPU:    4.312
  Cycle:     34  Sum sqs:       0.100819  Gnorm:      8.429869  CPU:    4.422
  Cycle:     35  Sum sqs:       0.100265  Gnorm:     19.590456  CPU:    4.547
  Cycle:     36  Sum sqs:       0.099507  Gnorm:      3.376099  CPU:    4.688
  Cycle:     37  Sum sqs:       0.097157  Gnorm:     29.123915  CPU:    4.812
  Cycle:     38  Sum sqs:       0.096399  Gnorm:      7.924848  CPU:    4.938
  Cycle:     39  Sum sqs:       0.094749  Gnorm:     19.807319  CPU:    5.062
  Cycle:     40  Sum sqs:       0.094161  Gnorm:      3.908061  CPU:    5.188
  ** Hessian calculated **
  Cycle:     41  Sum sqs:       0.094141  Gnorm:      0.920900  CPU:    5.391
  Cycle:     42  Sum sqs:       0.093886  Gnorm:      0.638466  CPU:    5.531
  Cycle:     43  Sum sqs:       0.093019  Gnorm:      0.789825  CPU:    5.656
  Cycle:     44  Sum sqs:       0.093006  Gnorm:      1.785551  CPU:    5.781


  **** Fit completed successfully ****


  Final sum of squares =             0.093006

  Final gradient norm  =             1.785551

  Final values of parameters :

--------------------------------------------------------------------------------
 Parameter No.    Parameter        Parameter      Parameter Type  Species
                  Original         Final                                 
--------------------------------------------------------------------------------
         1           1283.037674      1301.575125 General A      
         2              0.320500         0.318506 General rho    
         3          22764.000000     56979.604759 Buckingham A   
         4              0.149000         0.182248 Buckingham rho 
         5             74.920000        80.673369 Spring k 2     
--------------------------------------------------------------------------------


  Final values of numerical parameter gradients :

--------------------------------------------------------------------------------
     Parameter No.       Parameter Gradient      Parameter Type  Species
--------------------------------------------------------------------------------
             1                  0.015230          General A      
             2                  1.785318          General rho    
             3                 -0.000878          Buckingham A   
             4                  0.013088          Buckingham rho 
             5                  0.020642          Spring k 2     
--------------------------------------------------------------------------------


  Final values of residuals :

--------------------------------------------------------------------------------
   Observable no.  Type            Observable   Calculated    Residual  Error(%)
--------------------------------------------------------------------------------
          1        Structure          0.46820      0.47017      0.03871    0.420
          2        Structure          0.41310      0.41213      0.00949   -0.236
          3        Structure          0.26610      0.26604      0.00004   -0.022
          4        Structure          0.21310      0.21379      0.00478    0.324
          5        Structure          4.91473      4.91009      0.02154   -0.094
          6        Structure          5.40657      5.41087      0.01845    0.079
--------------------------------------------------------------------------------

  Comparison of initial and final observables :

--------------------------------------------------------------------------------
   Observable no.  Type            Observable   Initial       Final             
--------------------------------------------------------------------------------
          1        Structure          0.46820      0.46420      0.47017
          2        Structure          0.41310      0.40842      0.41213
          3        Structure          0.26610      0.27785      0.26604
          4        Structure          0.21310      0.22422      0.21379
          5        Structure          4.91473      4.83826      4.91009
          6        Structure          5.40657      5.34745      5.41087
--------------------------------------------------------------------------------

  Maximum range for interatomic potentials =    100000.000000 Angstroms

  General interatomic potentials :

--------------------------------------------------------------------------------
Atom  Types   Potential      Parameter       Value         Units   Cutoffs(Ang)
  1     2                                                            Min /  Max 
--------------------------------------------------------------------------------
Si   c O    s General       General A        1301.5751    eV*Ang^m  0.000  8.000
                            General rho     0.31850570    Ang       
                            General C        10.660000    eV*Ang^n  
                            Exponent m         0          None
                            Exponent n         6          None
--------------------------------------------------------------------------------
O    s O    s Buckingham    Buckingham A     56979.605    eV        0.000  8.000
                            Buckingham rho  0.18224807    Ang       
                            Buckingham C     27.880000    eV*Ang^6  
--------------------------------------------------------------------------------
O    c O    s Spring (c-s)  Spring k 2       80.673369    eV*Ang^-2 0.000  0.800
                            Spring k 4       0.0000000    eV*Ang^-4 
--------------------------------------------------------------------------------

  Potentials with energy / gradient boundary corrections : 

--------------------------------------------------------------------------------
    Potential       Atom1   Atom2    Type of correction
--------------------------------------------------------------------------------
    General  0  6   Si    c O     s  Gradient
--------------------------------------------------------------------------------

  General Three-body potentials :

--------------------------------------------------------------------------------
  Atoms       Potential      Parameter       Value         Units   Cutoffs(Ang)
  1 / 2 / 3                                                          Min /  Max 
--------------------------------------------------------------------------------
Si    core    Harmonic      Three-body cnst  2.0972400    eV*rad^-2 0.000  1.800
O     shel                  Three-body angl  109.47000    degrees   0.000  1.800
O     shel                  Three-body k4    0.0000000    eV*rad^-4 0.000  3.200
                            Three-body k3    0.0000000    eV*rad^-3 
--------------------------------------------------------------------------------



  Total time to end of fitting =       5.7969 seconds

********************************************************************************
*  Output for configuration   1 : ex02                                         *
********************************************************************************


  Components of energy : 

--------------------------------------------------------------------------------
  Interatomic potentials     =         103.36602602 eV    
  Three-body potentials      =           0.05967375 eV    
  Monopole - monopole (real) =        -111.26563177 eV    
  Monopole - monopole (recip)=        -379.17637423 eV    
  Monopole - monopole (total)=        -490.44200600 eV    
--------------------------------------------------------------------------------
  Total lattice energy       =        -387.01630624 eV    
--------------------------------------------------------------------------------
  Total lattice energy       =          -37341.1575 kJ/(mole unit cells)
--------------------------------------------------------------------------------


  Number of variables =        9

  Maximum number of calculations  =          1000
  Maximum Hessian update interval =            10
  Maximum step size               =   1.000000000
  Maximum parameter tolerance     =   0.000010000
  Maximum function  tolerance     =   0.000010000
  Maximum gradient  tolerance     =   0.001000000
  Maximum gradient  component     =   0.010000000

  Symmetry constrained optimisation

  Symmetry used for second derivatives

  Cell parameters to be optimised using strains

  Newton-Raphson optimiser to be used

  BFGS hessian update to be used

  Lower half triangular hessian to be used

  Start of bulk optimisation :

  Cycle:      0 Energy:      -387.016306  Gnorm:      3.852541  CPU:    5.797
  ** Hessian calculated **
  Cycle:      1 Energy:      -387.041288  Gnorm:      0.024815  CPU:    5.797
  Cycle:      2 Energy:      -387.041298  Gnorm:      0.001497  CPU:    5.797


  **** Optimisation achieved ****


  Final energy =    -387.04130400 eV
  Final Gnorm  =       0.00006694

  Components of energy : 

--------------------------------------------------------------------------------
  Interatomic potentials     =         102.35405405 eV    
  Three-body potentials      =           0.04328452 eV    
  Monopole - monopole (real) =        -110.17716344 eV    
  Monopole - monopole (recip)=        -379.26147915 eV    
  Monopole - monopole (total)=        -489.43864258 eV    
--------------------------------------------------------------------------------
  Total lattice energy       =        -387.04130400 eV    
--------------------------------------------------------------------------------
  Total lattice energy       =          -37343.5694 kJ/(mole unit cells)
--------------------------------------------------------------------------------

  Final asymmetric unit coordinates :

--------------------------------------------------------------------------------
   No.  Atomic        x           y           z         Radius
        Label       (Frac)      (Frac)      (Frac)       (Angs) 
--------------------------------------------------------------------------------
     1  Si    c     0.470167    0.000000    0.333333    0.000000
     2  O     c     0.412126    0.266040    0.213791    0.000000
     3  O     s     0.430039    0.265570    0.204910    0.000000
--------------------------------------------------------------------------------

  Final Cartesian lattice vectors (Angstroms) :

        4.910088    0.000000    0.000000
       -2.455044    4.252261    0.000000
        0.000000    0.000000    5.410865


  Final cell parameters and derivatives :

--------------------------------------------------------------------------------
       a            4.910088 Angstrom     dE/de1(xx)     0.000033 eV/strain
       b            4.910088 Angstrom     dE/de2(yy)     0.000000 eV/strain
       c            5.410865 Angstrom     dE/de3(zz)    -0.000069 eV/strain
       alpha       90.000000 Degrees      dE/de4(yz)     0.000000 eV/strain
       beta        90.000000 Degrees      dE/de5(xz)     0.000000 eV/strain
       gamma      120.000000 Degrees      dE/de6(xy)     0.000000 eV/strain
--------------------------------------------------------------------------------

  Primitive cell volume =           112.973345 Angs**3

  Density of cell =      2.649741 g/cm**3

  Non-primitive cell volume =           112.973345 Angs**3


  Final internal derivatives :

--------------------------------------------------------------------------------
   No.  Atomic          a             b             c           Radius
        Label          (eV)          (eV)          (eV)        (eV/Angs)
--------------------------------------------------------------------------------
      1 Si    c       0.000076      0.000000      0.000000      0.000000
      2 O     c       0.000093      0.000116      0.000289      0.000000
      3 O     s      -0.000381     -0.000073     -0.000309      0.000000
--------------------------------------------------------------------------------
  Maximum abs         0.000381      0.000116      0.000309      0.000000
--------------------------------------------------------------------------------

  Comparison of initial and final structures : 

--------------------------------------------------------------------------------
  Parameter   Initial value   Final value   Difference    Units      Percent
--------------------------------------------------------------------------------
    Volume       113.097184    112.973345    -0.123839    Angs**3     -0.11
    a              4.914730      4.910088    -0.004642    Angstroms   -0.09
    b              4.914730      4.910088    -0.004642    Angstroms   -0.09
    c              5.406570      5.410865     0.004295    Angstroms    0.08
    alpha         90.000000     90.000000     0.000000    Degrees      0.00
    beta          90.000000     90.000000     0.000000    Degrees      0.00
    gamma        120.000000    120.000000     0.000000    Degrees      0.00
      1 x          0.468200      0.470167     0.001967    Fractional   0.42
      1 y          0.000000      0.000000     0.000000    Fractional   0.00
      1 z          0.333333      0.333333     0.000000    Fractional   0.00
      2 x          0.413100      0.412126     0.000974    Fractional   0.24
      2 y          0.266100      0.266040     0.000060    Fractional   0.02
      2 z          0.213100      0.213791     0.000691    Fractional   0.32
      3 x          0.431813      0.430039     0.001774    Fractional   0.41
      3 y          0.264902      0.265570     0.000668    Fractional   0.25
      3 z          0.204106      0.204910     0.000804    Fractional   0.39
--------------------------------------------------------------------------------


  Born effective charge tensors : 

-------------------------------------------------------------------------------
  Atom             x           y             z
-------------------------------------------------------------------------------
    1 Si    x       3.2136      0.0000      0.0000
            y       0.0000      3.6113      0.2657
            z       0.0000     -0.1561      3.5009
-------------------------------------------------------------------------------
    2 O     x      -1.4480      0.3756     -0.2608
            y       0.3720     -1.9644      0.5294
            z      -0.1900      0.5760     -1.7505
-------------------------------------------------------------------------------




  Elastic Constant Matrix: (Units=GPa)

-------------------------------------------------------------------------------
  Indices      1         2         3         4         5         6    
-------------------------------------------------------------------------------
       1    109.8962    7.4515   10.3669  -21.8725    0.0002   -0.0000
       2      7.4515  109.8962   10.3669   21.8725   -0.0002   -0.0000
       3     10.3669   10.3669  120.8293    0.0000   -0.0000   -0.0000
       4    -21.8725   21.8725    0.0000   59.2125    0.0000   -0.0002
       5      0.0002   -0.0002   -0.0000    0.0000   59.2125  -21.8725
       6     -0.0000   -0.0000   -0.0000   -0.0002  -21.8725   51.2224
-------------------------------------------------------------------------------


  Elastic Compliance Matrix: (Units=1/GPa)

-------------------------------------------------------------------------------
  Indices      1         2         3         4         5         6    
-------------------------------------------------------------------------------
       1    0.010121 -0.001468 -0.000742  0.004281 -0.000000  0.000000
       2   -0.001468  0.010121 -0.000742 -0.004281  0.000000  0.000000
       3   -0.000742 -0.000742  0.008404 -0.000000  0.000000  0.000000
       4    0.004281 -0.004281 -0.000000  0.020051 -0.000000  0.000000
       5   -0.000000  0.000000  0.000000 -0.000000  0.020051  0.008562
       6    0.000000  0.000000  0.000000  0.000000  0.008562  0.023179
-------------------------------------------------------------------------------

  Mechanical properties :

-------------------------------------------------------------------------------
  Convention :                    Reuss         Voigt         Hill
-------------------------------------------------------------------------------
  Bulk  Modulus (GPa)     =      43.97603      44.11025      44.04314
  Shear Modulus (GPa)     =      47.43261      54.75856      51.09558
-------------------------------------------------------------------------------
  Velocity S-wave (km/s)  =       4.23094       4.54595       4.39127
  Velocity P-wave (km/s)  =       6.36114       6.64840       6.50635
-------------------------------------------------------------------------------
  Compressibility (1/GPa) =    0.02273966
-------------------------------------------------------------------------------
  Stress axis :                     x             y             z
-------------------------------------------------------------------------------
  Youngs Moduli (GPa)     =      98.80323      98.80323     118.99759
-------------------------------------------------------------------------------
  Poissons Ratio (x)      =                     0.14507       0.08834
  Poissons Ratio (y)      =       0.14507                     0.08834
  Poissons Ratio (z)      =       0.07335       0.07335
-------------------------------------------------------------------------------


  Piezoelectric Strain Matrix: (Units=C/m**2)

-------------------------------------------------------------------------------
  Indices      1         2         3         4         5         6    
-------------------------------------------------------------------------------
       x     2.30901  -2.30901  -0.00000  -0.58587   0.00005   0.00000
       y     0.00000  -0.00000  -0.00000   0.00005   0.58587  -2.30901
       z    -0.00004  -0.00004   0.00009   0.00000   0.00000  -0.00000
-------------------------------------------------------------------------------


  Piezoelectric Stress Matrix: (Units=10**-11 C/N)

-------------------------------------------------------------------------------
  Indices      1         2         3         4         5         6    
-------------------------------------------------------------------------------
       x     2.42519  -2.42519  -0.00000   0.80225   0.00008   0.00004
       y     0.00002  -0.00002  -0.00000   0.00008  -0.80225  -4.85039
       z    -0.00004  -0.00004   0.00008   0.00000   0.00000  -0.00000
-------------------------------------------------------------------------------


  Static dielectric constant tensor : 

-------------------------------------------------------------------------------
              x         y         z
-------------------------------------------------------------------------------
       x     4.56046  -0.00000  -0.00000
       y    -0.00000   4.56046   0.00000
       z    -0.00000   0.00000   4.86889
--------------------------------------------------------------------------------

  High frequency dielectric constant tensor : 

-------------------------------------------------------------------------------
              x         y         z
-------------------------------------------------------------------------------
       x     1.99297  -0.00000   0.00000
       y    -0.00000   1.99297  -0.00000
       z     0.00000  -0.00000   2.01071
-------------------------------------------------------------------------------

  Static refractive indices : 

-------------------------------------------------------------------------------
    1 =    2.13552      2 =    2.13552      3 =    2.20656
-------------------------------------------------------------------------------

  High frequency refractive indices : 

-------------------------------------------------------------------------------
    1 =    1.41173      2 =    1.41173      3 =    1.41799
-------------------------------------------------------------------------------


  Phonon Calculation : 

  Number of k points for this configuration =        1

--------------------------------------------------------------------------------
  K point      1 =   0.000000  0.000000  0.000000  Weight =    1.000
--------------------------------------------------------------------------------

  Frequencies (cm-1) [NB: Negative implies an imaginary mode]:

   -0.00    0.00    0.00  146.60  146.60  202.71  283.25  283.25  364.03
  366.14  419.28  419.28  456.86  456.86  479.41  509.23  723.76  723.76
  813.18  813.18  818.22  900.50  904.01  904.01  915.04 1044.62 1044.62


--------------------------------------------------------------------------------
  Phonon properties (per mole of unit cells): Temperature =      0.000 K
--------------------------------------------------------------------------------
  Zero point energy            =        0.876475 eV
--------------------------------------------------------------------------------

  Phonon density of states : 

--------------------------------------------------------------------------------
 Frequency (cm-1) Density of States                                             
--------------------------------------------------------------------------------
    0.00000 |****************************************                      0.077
   16.32218 |                                                              0.000
   32.64436 |                                                              0.000
   48.96654 |                                                              0.000
   65.28872 |                                                              0.000
   81.61090 |                                                              0.000
   97.93308 |                                                              0.000
  114.25526 |                                                              0.000
  130.57744 |****************************************                      0.077
  146.89962 |                                                              0.000
  163.22180 |                                                              0.000
  179.54398 |                                                              0.000
  195.86616 |********************                                          0.038
  212.18834 |                                                              0.000
  228.51052 |                                                              0.000
  244.83270 |                                                              0.000
  261.15488 |                                                              0.000
  277.47706 |****************************************                      0.077
  293.79924 |                                                              0.000
  310.12142 |                                                              0.000
  326.44360 |                                                              0.000
  342.76578 |                                                              0.000
  359.08796 |****************************************                      0.077
  375.41014 |                                                              0.000
  391.73232 |                                                              0.000
  408.05450 |****************************************                      0.077
  424.37668 |                                                              0.000
  440.69886 |****************************************                      0.077
  457.02104 |                                                              0.000
  473.34322 |********************                                          0.038
  489.66540 |                                                              0.000
  505.98758 |********************                                          0.038
  522.30976 |                                                              0.000
  538.63194 |                                                              0.000
  554.95412 |                                                              0.000
  571.27630 |                                                              0.000
  587.59848 |                                                              0.000
  603.92066 |                                                              0.000
  620.24284 |                                                              0.000
  636.56502 |                                                              0.000
  652.88720 |                                                              0.000
  669.20938 |                                                              0.000
  685.53156 |                                                              0.000
  701.85374 |                                                              0.000
  718.17592 |****************************************                      0.077
  734.49810 |                                                              0.000
  750.82028 |                                                              0.000
  767.14246 |                                                              0.000
  783.46464 |                                                              0.000
  799.78682 |****************************************                      0.077
  816.10900 |********************                                          0.038
  832.43118 |                                                              0.000
  848.75336 |                                                              0.000
  865.07554 |                                                              0.000
  881.39772 |                                                              0.000
  897.71990 |************************************************************  0.115
  914.04208 |********************                                          0.038
  930.36426 |                                                              0.000
  946.68644 |                                                              0.000
  963.00862 |                                                              0.000
  979.33080 |                                                              0.000
  995.65298 |                                                              0.000
 1011.97516 |                                                              0.000
 1028.29734 |****************************************                      0.077
--------------------------------------------------------------------------------



  Time to end of optimisation =       5.8125 seconds


  Peak dynamic memory used =       1.88 MB 


  Timing analysis for GULP :

--------------------------------------------------------------------------------
  Task / Subroutine                                          Time (Seconds)
--------------------------------------------------------------------------------
  Calculation of reciprocal space energy and derivatives          0.2188
  Calculation of reciprocal space energy using symmetry           0.8594
  Calculation of real space energy and derivatives                1.0312
  Calculation of real space energy using symmetry                 3.0625
  Calculation of three-body energy and derivatives                0.4062
  Calculation of phonons                                          0.0156
  Sum of squares for fitting                                      5.4688
  Symmetry generation of equivalent positions                     0.0625
  Global summation overhead                                       0.0312
--------------------------------------------------------------------------------
  Total CPU time                                                  5.8125
--------------------------------------------------------------------------------


  Dump file written as example2.grs


  Job Finished at 21:50.47  7th December   2020                               

