********************************************************************************
*                       GENERAL UTILITY LATTICE PROGRAM                        *
*                                 Julian Gale                                  *
*                       Curtin Institute for Computation                       *
*                    School of Molecular and Life Sciences                     *
*                    Curtin University, Western Australia                      *
********************************************************************************
* Version = 5.2.0 * Last modified =  10th September 2020                       *
********************************************************************************
*  fit          - perform fitting run                                          *
*  optimise     - perform optimisation run after fitting                       *
*  conp         - constant pressure calculation                                *
*  c6           - use real and reciprocal space sum for C6 terms               *
*  property     - calculate properties for final geometry                      *
*  phonon       - calculate phonons for final geometry                         *
*  relax        - relax structure during fitting                               *
*  compare      - compare initial and final structures                         *
********************************************************************************

  Job Started  at 21:50.52  7th December   2020                               

  Number of CPUs =     1


  Total number of configurations input =      1

********************************************************************************
*  Input for Configuration =   1 : ex04                                        *
********************************************************************************

  Formula = La2O3                                                       

  Number of irreducible atoms/shells =       6


  Total number atoms/shells =      10

  Dimensionality = 3               :  Bulk   


  Symmetry :

  Crystal family                   :  Hexagonal   
  Crystal class  (Groth - 1921)    :  Ditrigonal Scalenohedral             

  Space group (centrosymmetric)    :  P -3 M 1        

  Patterson group                  :  P -3 m 1 

  Cartesian lattice vectors (Angstroms) :

        3.938000    0.000000    0.000000
       -1.969000    3.410408    0.000000
        0.000000    0.000000    6.128000

  Cell parameters (Angstroms/Degrees):

  a =       3.9380    alpha =  90.0000
  b =       3.9380    beta  =  90.0000
  c =       6.1280    gamma = 120.0000

  Initial cell volume =          82.300185 Angs**3

  Temperature of configuration =   0.00     K 

  Pressure of configuration =         0.000 GPa 

  Fractional coordinates of asymmetric unit :

--------------------------------------------------------------------------------
   No.  Atomic       x           y          z         Charge      Occupancy
        Label      (Frac)      (Frac)     (Frac)        (e)         (Frac)  
--------------------------------------------------------------------------------
      1 La    c    0.333333    0.666667    0.245000 *   9.00000    1.000000    
      2 O     c    0.000000    0.000000    0.000000     0.50000    1.000000    
      3 O     c    0.333333    0.666667    0.645000 *   0.50000    1.000000    
      4 La    s    0.333333    0.666667    0.245000 *  -6.00000    1.000000    
      5 O     s    0.000000    0.000000    0.000000    -2.50000    1.000000    
      6 O     s    0.333333    0.666667    0.645000 *  -2.50000    1.000000    
--------------------------------------------------------------------------------


  Constraints : 

--------------------------------------------------------------------------------
  Constraint no.      Unconstrained     Constrained    Coefficient    Offset
                         Variable         Variable
--------------------------------------------------------------------------------
           1              Strain 1        Strain 2       1.00000      0.0000
--------------------------------------------------------------------------------

  Brillouin zone sampling points :

--------------------------------------------------------------------------------
  Point number          x          y          z            Weight
--------------------------------------------------------------------------------
        1           0.000000   0.000000   0.000000     1.00000000
--------------------------------------------------------------------------------


********************************************************************************
*  General input information                                                   *
********************************************************************************

  Species output for all configurations : 

--------------------------------------------------------------------------------
  Species    Type    Atomic    Atomic    Charge       Radii (Angs)     Library
                     Number     Mass       (e)     Cova   Ionic  VDW   Symbol
--------------------------------------------------------------------------------
    La       Core       57     138.91   9.000000   1.870  0.000  2.790          
    La       Shell      57       0.00  -6.000000   1.870  0.000  2.790          
    O        Core        8      16.00   0.500000   0.730  0.000  1.360          
    O        Shell       8       0.00  -2.500000   0.730  0.000  1.360          
--------------------------------------------------------------------------------


  Lattice summation method               =    Ewald          (3-D)
                                         =    Parry          (2-D)
                                         =    Saunders et al (1-D)
  Accuracy factor for lattice sums       =   12.000


  Analytic derivatives to be used

  Time limit = Infinity

  Maximum range for interatomic potentials =    100000.000000 Angstroms

  C6 terms to be calculated in real and reciprocal space 

  General interatomic potentials :

--------------------------------------------------------------------------------
Atom  Types   Potential      Parameter       Value         Units   Cutoffs(Ang)
  1     2                                                            Min /  Max 
--------------------------------------------------------------------------------
O    s La   s Buckingham    Buckingham A     5700.5200    eV        0.000 24.000
                            Buckingham rho  0.29885000    Ang       
                            Buckingham C     38.936500    eV*Ang^6  
--------------------------------------------------------------------------------
O    s O    s Buckingham    Buckingham A     576.94000    eV        0.000 20.000
                            Buckingham rho  0.33536000    Ang       
                            Buckingham C     0.0000000    eV*Ang^6  
--------------------------------------------------------------------------------
La   s La   s Buckingham    Buckingham A     85791.740    eV        0.000 20.000
                            Buckingham rho  0.22030000    Ang       
                            Buckingham C     6.8630000    eV*Ang^6  
--------------------------------------------------------------------------------
La   c La   s Spring (c-s)  Spring k 2       460.00000    eV*Ang^-2 0.000  1.000
                            Spring k 4       0.0000000    eV*Ang^-4 
--------------------------------------------------------------------------------
O    c O    s Spring (c-s)  Spring k 2       27.000000    eV*Ang^-2 0.000  1.000
                            Spring k 4       0.0000000    eV*Ang^-4 
--------------------------------------------------------------------------------


  Number of variables   =    3
  Number of observables =    4

--------------------------------------------------------------------------------
   Observable no.  Type           Observable    Weight       Reference  Confign 
--------------------------------------------------------------------------------
          1        Structure         0.245000    10000.0000    1 z         1
          2        Structure         0.645000    10000.0000    3 z         1
          3        Structure         3.938000     1000.0000    a           1
          4        Structure         6.128000     1000.0000    c           1
--------------------------------------------------------------------------------

  Variables :

--------------------------------------------------------------------------------
     Parameter No.       Parameter Value          Parameter Type  Species
--------------------------------------------------------------------------------
             1               5700.520000          Buckingham A   
             2                576.940000          Buckingham A   
             3              85791.740000          Buckingham A   
--------------------------------------------------------------------------------

  Symmetry constraints used for fitting
  First derivatives of residuals to be used in fitting

  Maximum no. of cycles   =       5000
  Maximum step size       =  1000.0000
  Tolerance on parameters =  0.0000100
  Tolerance on function   =  0.0000100
  Tolerance on gradient   =  0.0001000
  Differencing interval   =  0.0001000

  Start of fitting :

  Cycle:      0  Sum sqs:       6.517465  Gnorm:    155.505736  CPU:    0.109
  ** Hessian calculated **
  Cycle:      1  Sum sqs:       1.176993  Gnorm:     10.107603  CPU:    0.312
  Cycle:      2  Sum sqs:       0.899939  Gnorm:     26.341029  CPU:    0.484
  Cycle:      3  Sum sqs:       0.697224  Gnorm:      1.473865  CPU:    0.641
  Cycle:      4  Sum sqs:       0.660237  Gnorm:      4.829877  CPU:    0.844
  Cycle:      5  Sum sqs:       0.597356  Gnorm:      5.517891  CPU:    1.031
  Cycle:      6  Sum sqs:       0.577707  Gnorm:      5.451240  CPU:    1.219
  Cycle:      7  Sum sqs:       0.574773  Gnorm:      5.436955  CPU:    1.375
  Cycle:      8  Sum sqs:       0.573814  Gnorm:      5.431954  CPU:    1.594
  Cycle:      9  Sum sqs:       0.573732  Gnorm:      5.431577  CPU:    1.781
  Cycle:     10  Sum sqs:       0.573693  Gnorm:      5.428838  CPU:    2.016
  Cycle:     11  Sum sqs:       0.553149  Gnorm:      0.150754  CPU:    2.188
  Cycle:     12  Sum sqs:       0.553133  Gnorm:      0.060427  CPU:    2.359
  Cycle:     13  Sum sqs:       0.553129  Gnorm:      0.016299  CPU:    2.531


  **** Fit completed successfully ****


  Final sum of squares =             0.553129

  Final gradient norm  =             0.016299

  Final values of parameters :

--------------------------------------------------------------------------------
 Parameter No.    Parameter        Parameter      Parameter Type  Species
                  Original         Final                                 
--------------------------------------------------------------------------------
         1           5700.520000      5577.292582 Buckingham A   
         2            576.940000      1227.114684 Buckingham A   
         3          85791.740000         1.593616 Buckingham A   
--------------------------------------------------------------------------------


  Final values of numerical parameter gradients :

--------------------------------------------------------------------------------
     Parameter No.       Parameter Gradient      Parameter Type  Species
--------------------------------------------------------------------------------
             1                 -0.005108          Buckingham A   
             2                 -0.000690          Buckingham A   
             3                  0.015463          Buckingham A   
--------------------------------------------------------------------------------


  Final values of residuals :

--------------------------------------------------------------------------------
   Observable no.  Type            Observable   Calculated    Residual  Error(%)
--------------------------------------------------------------------------------
          1        Structure          0.24500      0.24883      0.14673    1.563
          2        Structure          0.64500      0.63869      0.39878   -0.979
          3        Structure          3.93800      3.93630      0.00290   -0.043
          4        Structure          6.12800      6.13017      0.00472    0.035
--------------------------------------------------------------------------------

  Comparison of initial and final observables :

--------------------------------------------------------------------------------
   Observable no.  Type            Observable   Initial       Final             
--------------------------------------------------------------------------------
          1        Structure          0.24500      0.24858      0.24883
          2        Structure          0.64500      0.63406      0.63869
          3        Structure          3.93800      3.93048      3.93630
          4        Structure          6.12800      6.05633      6.13017
--------------------------------------------------------------------------------

  Maximum range for interatomic potentials =    100000.000000 Angstroms

  C6 terms to be calculated in real and reciprocal space 

  General interatomic potentials :

--------------------------------------------------------------------------------
Atom  Types   Potential      Parameter       Value         Units   Cutoffs(Ang)
  1     2                                                            Min /  Max 
--------------------------------------------------------------------------------
O    s La   s Buckingham    Buckingham A     5577.2926    eV        0.000 24.000
                            Buckingham rho  0.29885000    Ang       
                            Buckingham C     38.936500    eV*Ang^6  
--------------------------------------------------------------------------------
O    s O    s Buckingham    Buckingham A     1227.1147    eV        0.000 20.000
                            Buckingham rho  0.33536000    Ang       
                            Buckingham C     0.0000000    eV*Ang^6  
--------------------------------------------------------------------------------
La   s La   s Buckingham    Buckingham A     1.5936164    eV        0.000 20.000
                            Buckingham rho  0.22030000    Ang       
                            Buckingham C     6.8630000    eV*Ang^6  
--------------------------------------------------------------------------------
La   c La   s Spring (c-s)  Spring k 2       460.00000    eV*Ang^-2 0.000  1.000
                            Spring k 4       0.0000000    eV*Ang^-4 
--------------------------------------------------------------------------------
O    c O    s Spring (c-s)  Spring k 2       27.000000    eV*Ang^-2 0.000  1.000
                            Spring k 4       0.0000000    eV*Ang^-4 
--------------------------------------------------------------------------------



  Total time to end of fitting =       2.5469 seconds

********************************************************************************
*  Output for configuration   1 : ex04                                         *
********************************************************************************


  Components of energy : 

--------------------------------------------------------------------------------
  Interatomic potentials     =          20.18154803 eV    
  Monopole - monopole (real) =         -29.98384222 eV    
  Monopole - monopole (recip)=        -116.84800344 eV    
  Monopole - monopole (total)=        -146.83184566 eV    
  Dispersion (real+recip)    =          -2.49068436 eV    
--------------------------------------------------------------------------------
  Total lattice energy       =        -129.14098199 eV    
--------------------------------------------------------------------------------
  Total lattice energy       =          -12460.1307 kJ/(mole unit cells)
--------------------------------------------------------------------------------


  Number of variables =        6

  Maximum number of calculations  =          1000
  Maximum Hessian update interval =            10
  Maximum step size               =   1.000000000
  Maximum parameter tolerance     =   0.000010000
  Maximum function  tolerance     =   0.000010000
  Maximum gradient  tolerance     =   0.001000000
  Maximum gradient  component     =   0.010000000

  Symmetry constrained optimisation

  Symmetry used for second derivatives

  Cell parameters to be optimised using strains

  Newton-Raphson optimiser to be used

  BFGS hessian update to be used

  Lower half triangular hessian to be used

  Start of bulk optimisation :

  Cycle:      0 Energy:      -129.140982  Gnorm:     71.895128  CPU:    2.547
  ** Hessian calculated **
  Cycle:      1 Energy:      -130.150457  Gnorm:      1.168893  CPU:    2.547
  Cycle:      2 Energy:      -130.188874  Gnorm:      1.432149  CPU:    2.547
  Cycle:      3 Energy:      -130.192613  Gnorm:      0.245223  CPU:    2.547
  Cycle:      4 Energy:      -130.192770  Gnorm:      0.060505  CPU:    2.547


  **** Optimisation achieved ****


  Final energy =    -130.19277250 eV
  Final Gnorm  =       0.00066701

  Components of energy : 

--------------------------------------------------------------------------------
  Interatomic potentials     =          20.90532656 eV    
  Monopole - monopole (real) =         855.08734113 eV    
  Monopole - monopole (recip)=       -1003.72302268 eV    
  Monopole - monopole (total)=        -148.63568155 eV    
  Dispersion (real+recip)    =          -2.46241752 eV    
--------------------------------------------------------------------------------
  Total lattice energy       =        -130.19277250 eV    
--------------------------------------------------------------------------------
  Total lattice energy       =          -12561.6124 kJ/(mole unit cells)
--------------------------------------------------------------------------------

  Final asymmetric unit coordinates :

--------------------------------------------------------------------------------
   No.  Atomic        x           y           z         Radius
        Label       (Frac)      (Frac)      (Frac)       (Angs) 
--------------------------------------------------------------------------------
     1  La    c     0.333333    0.666667    0.248831    0.000000
     2  O     c     0.000000    0.000000    0.000000    0.000000
     3  O     c     0.333333    0.666667    0.638685    0.000000
     4  La    s     0.333333    0.666667    0.241068    0.000000
     5  O     s     0.000000    0.000000    0.000000    0.000000
     6  O     s     0.333333    0.666667    0.638099    0.000000
--------------------------------------------------------------------------------

  Final Cartesian lattice vectors (Angstroms) :

        3.936298    0.000000    0.000000
       -1.968149    3.408934    0.000000
        0.000000    0.000000    6.130173


  Final cell parameters and derivatives :

--------------------------------------------------------------------------------
       a            3.936298 Angstrom     dE/de1(xx)     0.000378 eV/strain
       b            3.936298 Angstrom     dE/de2(yy)     0.000000 eV/strain
       c            6.130173 Angstrom     dE/de3(zz)    -0.000137 eV/strain
       alpha       90.000000 Degrees      dE/de4(yz)     0.000000 eV/strain
       beta        90.000000 Degrees      dE/de5(xz)     0.000000 eV/strain
       gamma      120.000000 Degrees      dE/de6(xy)     0.000000 eV/strain
--------------------------------------------------------------------------------

  Primitive cell volume =            82.258242 Angs**3

  Density of cell =      6.577401 g/cm**3

  Non-primitive cell volume =            82.258242 Angs**3


  Final internal derivatives :

--------------------------------------------------------------------------------
   No.  Atomic          a             b             c           Radius
        Label          (eV)          (eV)          (eV)        (eV/Angs)
--------------------------------------------------------------------------------
      1 La    c       0.000000      0.000000     -0.002744      0.000000
      2 O     c       0.000000      0.000000      0.000000      0.000000
      3 O     c       0.000000      0.000000      0.001151      0.000000
      4 La    s       0.000000      0.000000      0.002543      0.000000
      5 O     s       0.000000      0.000000      0.000000      0.000000
      6 O     s       0.000000      0.000000     -0.000731      0.000000
--------------------------------------------------------------------------------
  Maximum abs         0.000000      0.000000      0.002744      0.000000
--------------------------------------------------------------------------------

  Comparison of initial and final structures : 

--------------------------------------------------------------------------------
  Parameter   Initial value   Final value   Difference    Units      Percent
--------------------------------------------------------------------------------
    Volume        82.300185     82.258242    -0.041943    Angs**3     -0.05
    a              3.938000      3.936298    -0.001702    Angstroms   -0.04
    b              3.938000      3.936298    -0.001702    Angstroms   -0.04
    c              6.128000      6.130173     0.002173    Angstroms    0.04
    alpha         90.000000     90.000000     0.000000    Degrees      0.00
    beta          90.000000     90.000000     0.000000    Degrees      0.00
    gamma        120.000000    120.000000     0.000000    Degrees      0.00
      1 x          0.333333      0.333333     0.000000    Fractional   0.00
      1 y          0.666667      0.666667     0.000000    Fractional   0.00
      1 z          0.245000      0.248831     0.003831    Fractional   1.56
      2 x          0.000000      0.000000     0.000000    Fractional   0.00
      2 y          0.000000      0.000000     0.000000    Fractional   0.00
      2 z          0.000000      0.000000     0.000000    Fractional   0.00
      3 x          0.333333      0.333333     0.000000    Fractional   0.00
      3 y          0.666667      0.666667     0.000000    Fractional   0.00
      3 z          0.645000      0.638685     0.006315    Fractional   0.98
      4 x          0.333333      0.333333     0.000000    Fractional   0.00
      4 y          0.666667      0.666667     0.000000    Fractional   0.00
      4 z          0.245000      0.241068     0.003932    Fractional   1.60
      5 x          0.000000      0.000000     0.000000    Fractional   0.00
      5 y          0.000000      0.000000     0.000000    Fractional   0.00
      5 z          0.000000      0.000000     0.000000    Fractional   0.00
      6 x          0.333333      0.333333     0.000000    Fractional   0.00
      6 y          0.666667      0.666667     0.000000    Fractional   0.00
      6 z          0.645000      0.638099     0.006901    Fractional   1.07
--------------------------------------------------------------------------------


  Born effective charge tensors : 

-------------------------------------------------------------------------------
  Atom             x           y             z
-------------------------------------------------------------------------------
    1 La    x       3.6074     -0.0000      0.0000
            y      -0.0000      3.6074     -0.0000
            z       0.0000     -0.0000      3.6968
-------------------------------------------------------------------------------
    2 O     x      -2.7815      0.0000      0.0000
            y       0.0000     -2.7815      0.0000
            z       0.0000     -0.0000     -2.7760
-------------------------------------------------------------------------------
    3 O     x      -2.2166     -0.0000     -0.0000
            y      -0.0000     -2.2166      0.0000
            z       0.0000      0.0000     -2.3088
-------------------------------------------------------------------------------




  Elastic Constant Matrix: (Units=GPa)

-------------------------------------------------------------------------------
  Indices      1         2         3         4         5         6    
-------------------------------------------------------------------------------
       1    317.3894  154.0871  124.4643   57.2373   -0.0000    0.0000
       2    154.0871  317.3894  124.4643  -57.2373    0.0000    0.0000
       3    124.4643  124.4643  214.0506   -0.0000   -0.0000    0.0000
       4     57.2373  -57.2373   -0.0000  112.2906    0.0000   -0.0000
       5     -0.0000    0.0000   -0.0000    0.0000  112.2906   57.2373
       6      0.0000    0.0000    0.0000   -0.0000   57.2373   81.6512
-------------------------------------------------------------------------------


  Elastic Compliance Matrix: (Units=1/GPa)

-------------------------------------------------------------------------------
  Indices      1         2         3         4         5         6    
-------------------------------------------------------------------------------
       1    0.006294 -0.003234 -0.001780 -0.004857  0.000000 -0.000000
       2   -0.003234  0.006294 -0.001780  0.004857 -0.000000  0.000000
       3   -0.001780 -0.001780  0.006741  0.000000 -0.000000  0.000000
       4   -0.004857  0.004857  0.000000  0.013857 -0.000000  0.000000
       5    0.000000 -0.000000 -0.000000 -0.000000  0.013857 -0.009714
       6   -0.000000  0.000000  0.000000  0.000000 -0.009714  0.019056
-------------------------------------------------------------------------------

  Mechanical properties :

-------------------------------------------------------------------------------
  Convention :                    Reuss         Voigt         Hill
-------------------------------------------------------------------------------
  Bulk  Modulus (GPa)     =     174.09394     183.87344     178.98369
  Shear Modulus (GPa)     =      61.27383      90.96738      76.12061
-------------------------------------------------------------------------------
  Velocity S-wave (km/s)  =       3.05218       3.71891       3.40192
  Velocity P-wave (km/s)  =       6.23615       6.81144       6.53013
-------------------------------------------------------------------------------
  Compressibility (1/GPa) =    0.00574403
-------------------------------------------------------------------------------
  Stress axis :                     x             y             z
-------------------------------------------------------------------------------
  Youngs Moduli (GPa)     =     158.87128     158.87128     148.33631
-------------------------------------------------------------------------------
  Poissons Ratio (x)      =                     0.51376       0.26399
  Poissons Ratio (y)      =       0.51376                     0.26399
  Poissons Ratio (z)      =       0.28274       0.28274
-------------------------------------------------------------------------------


  Piezoelectric Strain Matrix: (Units=C/m**2)

-------------------------------------------------------------------------------
  Indices      1         2         3         4         5         6    
-------------------------------------------------------------------------------
       x    -0.00000  -0.00000  -0.00000   0.00000   0.00000  -0.00000
       y    -0.00000  -0.00000  -0.00000  -0.00000   0.00000  -0.00000
       z     0.00000   0.00000  -0.00000  -0.00000  -0.00000   0.00000
-------------------------------------------------------------------------------


  Piezoelectric Stress Matrix: (Units=10**-11 C/N)

-------------------------------------------------------------------------------
  Indices      1         2         3         4         5         6    
-------------------------------------------------------------------------------
       x    -0.00000   0.00000  -0.00000   0.00000   0.00000  -0.00000
       y     0.00000  -0.00000  -0.00000  -0.00000   0.00000  -0.00000
       z     0.00000   0.00000  -0.00000  -0.00000  -0.00000   0.00000
-------------------------------------------------------------------------------


  Static dielectric constant tensor : 

-------------------------------------------------------------------------------
              x         y         z
-------------------------------------------------------------------------------
       x    19.02979  -0.00000  -0.00000
       y    -0.00000  19.02979  -0.00000
       z    -0.00000  -0.00000  28.24010
--------------------------------------------------------------------------------

  High frequency dielectric constant tensor : 

-------------------------------------------------------------------------------
              x         y         z
-------------------------------------------------------------------------------
       x     3.88233   0.00000  -0.00000
       y     0.00000   3.88233   0.00000
       z    -0.00000   0.00000   3.89175
-------------------------------------------------------------------------------

  Static refractive indices : 

-------------------------------------------------------------------------------
    1 =    4.36231      2 =    4.36232      3 =    5.31414
-------------------------------------------------------------------------------

  High frequency refractive indices : 

-------------------------------------------------------------------------------
    1 =    1.97036      2 =    1.97036      3 =    1.97275
-------------------------------------------------------------------------------


  Phonon Calculation : 

  Number of k points for this configuration =        1

--------------------------------------------------------------------------------
  K point      1 =   0.000000  0.000000  0.000000  Weight =    1.000
--------------------------------------------------------------------------------

  Frequencies (cm-1) [NB: Negative implies an imaginary mode]:

   -0.00   -0.00   -0.00  125.29  125.29  180.31  213.88  213.88  240.86
  394.28  394.28  416.78  416.78  431.02  452.01


--------------------------------------------------------------------------------
  Phonon properties (per mole of unit cells): Temperature =      0.000 K
--------------------------------------------------------------------------------
  Zero point energy            =        0.223462 eV
--------------------------------------------------------------------------------

  Phonon density of states : 

--------------------------------------------------------------------------------
 Frequency (cm-1) Density of States                                             
--------------------------------------------------------------------------------
    0.00000 |                                                              0.000
    7.06260 |                                                              0.000
   14.12520 |                                                              0.000
   21.18780 |                                                              0.000
   28.25040 |                                                              0.000
   35.31300 |                                                              0.000
   42.37561 |                                                              0.000
   49.43821 |                                                              0.000
   56.50081 |                                                              0.000
   63.56341 |                                                              0.000
   70.62601 |                                                              0.000
   77.68861 |                                                              0.000
   84.75121 |                                                              0.000
   91.81381 |                                                              0.000
   98.87641 |                                                              0.000
  105.93901 |                                                              0.000
  113.00162 |                                                              0.000
  120.06422 |************************************************************  0.167
  127.12682 |                                                              0.000
  134.18942 |                                                              0.000
  141.25202 |                                                              0.000
  148.31462 |                                                              0.000
  155.37722 |                                                              0.000
  162.43982 |                                                              0.000
  169.50242 |                                                              0.000
  176.56502 |******************************                                0.083
  183.62762 |                                                              0.000
  190.69023 |                                                              0.000
  197.75283 |                                                              0.000
  204.81543 |                                                              0.000
  211.87803 |************************************************************  0.167
  218.94063 |                                                              0.000
  226.00323 |                                                              0.000
  233.06583 |                                                              0.000
  240.12843 |******************************                                0.083
  247.19103 |                                                              0.000
  254.25363 |                                                              0.000
  261.31624 |                                                              0.000
  268.37884 |                                                              0.000
  275.44144 |                                                              0.000
  282.50404 |                                                              0.000
  289.56664 |                                                              0.000
  296.62924 |                                                              0.000
  303.69184 |                                                              0.000
  310.75444 |                                                              0.000
  317.81704 |                                                              0.000
  324.87964 |                                                              0.000
  331.94225 |                                                              0.000
  339.00485 |                                                              0.000
  346.06745 |                                                              0.000
  353.13005 |                                                              0.000
  360.19265 |                                                              0.000
  367.25525 |                                                              0.000
  374.31785 |                                                              0.000
  381.38045 |                                                              0.000
  388.44305 |************************************************************  0.167
  395.50565 |                                                              0.000
  402.56825 |                                                              0.000
  409.63086 |                                                              0.000
  416.69346 |************************************************************  0.167
  423.75606 |                                                              0.000
  430.81866 |******************************                                0.083
  437.88126 |                                                              0.000
  444.94386 |******************************                                0.083
--------------------------------------------------------------------------------



  Time to end of optimisation =       2.5625 seconds


  Peak dynamic memory used =       1.84 MB 


  Timing analysis for GULP :

--------------------------------------------------------------------------------
  Task / Subroutine                                          Time (Seconds)
--------------------------------------------------------------------------------
  Calculation of reciprocal space energy and derivatives          0.0938
  Calculation of reciprocal space energy using symmetry           0.2344
  Calculation of real space energy and derivatives                0.2969
  Calculation of real space energy using symmetry                 1.8750
  Calculation of matrix inversion                                 0.0156
  Sum of squares for fitting                                      2.4219
  Symmetry generation of equivalent positions                     0.0156
--------------------------------------------------------------------------------
  Total CPU time                                                  2.5625
--------------------------------------------------------------------------------


  Dump file written as example4.grs


  Job Finished at 21:50.54  7th December   2020                               

