********************************************************************************
*                       GENERAL UTILITY LATTICE PROGRAM                        *
*                                 Julian Gale                                  *
*                       Curtin Institute for Computation                       *
*                    School of Molecular and Life Sciences                     *
*                    Curtin University, Western Australia                      *
********************************************************************************
* Version = 5.2.0 * Last modified =  11th May 2020                             *
********************************************************************************
*  optimise     - perform optimisation run                                     *
*  conp         - constant pressure calculation                                *
*  property     - calculate properties for final geometry                      *
*  phonon       - calculate phonons for final geometry                         *
*  compare      - compare initial and final structures                         *
********************************************************************************

  Job Started  at 20:26.42 25th February   2021                               

  Number of CPUs =     1


  Total number of configurations input =      1

********************************************************************************
*  Input for Configuration =   1 : ex09                                        *
********************************************************************************

  Formula = MgO                                                         

  Number of irreducible atoms/shells =       3


  Total number atoms/shells =       3

  Dimensionality = 3               :  Bulk   


  Symmetry :

  Crystal family                   :  Cubic       
  Crystal class  (Groth - 1921)    :  Cubic Hexakisoctahedral              

  Space group (centrosymmetric)    :  F M 3 M         

  Patterson group                  :  F m -3 m 

  Cartesian lattice vectors (Angstroms) :

        0.000000    2.106000    2.106000
        2.106000    0.000000    2.106000
        2.106000    2.106000    0.000000

  Primitive cell parameters :            Full cell parameters :

  a =   2.9783    alpha =  60.0000       a =   4.2120    alpha =  90.0000
  b =   2.9783    beta  =  60.0000       b =   4.2120    beta  =  90.0000
  c =   2.9783    gamma =  60.0000       c =   4.2120    gamma =  90.0000

  Initial volumes (Angstroms**3):

  Primitive cell =          18.681214    Full cell =          74.724856

  Temperature of configuration =   0.00     K 

  Pressure of configuration =         0.000 GPa 

  Fractional coordinates of asymmetric unit :

--------------------------------------------------------------------------------
   No.  Atomic       x           y          z         Charge      Occupancy
        Label      (Frac)      (Frac)     (Frac)        (e)         (Frac)  
--------------------------------------------------------------------------------
      1 Mg    c    0.000000    0.000000    0.000000     2.00000    1.000000    
      2 O     c    0.500000    0.500000    0.500000     0.80000    1.000000    
      3 O     bs   0.500000    0.500000    0.500000    -2.80000    1.000000    
--------------------------------------------------------------------------------


  Constraints : 

--------------------------------------------------------------------------------
  Constraint no.      Unconstrained     Constrained    Coefficient    Offset
                         Variable         Variable
--------------------------------------------------------------------------------
           1              Strain 1        Strain 2       1.00000      0.0000
           2              Strain 1        Strain 3       1.00000      0.0000
--------------------------------------------------------------------------------

  Brillouin zone sampling points :

--------------------------------------------------------------------------------
  Point number          x          y          z            Weight
--------------------------------------------------------------------------------
        1           0.000000   0.000000   0.000000     1.00000000
--------------------------------------------------------------------------------


********************************************************************************
*  General input information                                                   *
********************************************************************************

  Species output for all configurations : 

--------------------------------------------------------------------------------
  Species    Type    Atomic    Atomic    Charge       Radii (Angs)     Library
                     Number     Mass       (e)     Cova   Ionic  VDW   Symbol
--------------------------------------------------------------------------------
    Mg       Core       12      24.31   2.000000   1.100  0.000  1.640          
    O        Core        8      16.00   0.800000   0.730  0.000  1.360          
    O        BShell      8       0.00  -2.800000   0.730  1.125  1.360          
--------------------------------------------------------------------------------


  Lattice summation method               =    Ewald          (3-D)
                                         =    Parry          (2-D)
                                         =    Saunders et al (1-D)
  Accuracy factor for lattice sums       =   12.000


  Analytic derivatives to be used

  Time limit = Infinity

  Maximum range for interatomic potentials =    100000.000000 Angstroms

  General interatomic potentials :

--------------------------------------------------------------------------------
Atom  Types   Potential      Parameter       Value         Units   Cutoffs(Ang)
  1     2                                                            Min /  Max 
--------------------------------------------------------------------------------
Mg   c O    s Buckingham    Buckingham A     81.629600    eV        0.000 10.000
                            Buckingham rho  0.31050000    Ang       
                            Buckingham C     0.0000000    eV*Ang^6  
--------------------------------------------------------------------------------
O    c O    s Spring (c-s)  Spring k 2       60.569300    eV*Ang^-2 0.000  0.800
                            Spring k 4       0.0000000    eV*Ang^-4 
--------------------------------------------------------------------------------
O    s O    s BSM           BSM force const  443.89890    eV*Ang^-2 0.000  0.100
                            BSM radius       1.2000000    Ang       
--------------------------------------------------------------------------------
O    s O    s Buckingham    Buckingham A     0.0000000    eV        0.000 10.000
                            Buckingham rho  0.30000000    Ang       
                            Buckingham C     36.000000    eV*Ang^6  
--------------------------------------------------------------------------------

********************************************************************************
*  Output for configuration   1 : ex09                                         *
********************************************************************************


  Components of energy : 

--------------------------------------------------------------------------------
  Interatomic potentials     =          21.87254537 eV    
  Monopole - monopole (real) =          -4.34238722 eV    
  Monopole - monopole (recip)=         -43.45344934 eV    
  Monopole - monopole (total)=         -47.79583656 eV    
--------------------------------------------------------------------------------
  Total lattice energy : 
    Primitive unit cell      =         -25.92329120 eV    
    Non-primitive unit cell  =        -103.69316478 eV    
--------------------------------------------------------------------------------
  Total lattice energy (in kJmol-1): 
    Primitive unit cell      =           -2501.2013 kJ/(mole unit cells)
    Non-primitive unit cell  =          -10004.8053 kJ/(mole unit cells)
--------------------------------------------------------------------------------


  Number of variables =        2

  Maximum number of calculations  =          1000
  Maximum Hessian update interval =            10
  Maximum step size               =   1.000000000
  Maximum parameter tolerance     =   0.000010000
  Maximum function  tolerance     =   0.000010000
  Maximum gradient  tolerance     =   0.001000000
  Maximum gradient  component     =   0.010000000

  Symmetry constrained optimisation

  Symmetry used for second derivatives

  Cell parameters to be optimised using strains

  Newton-Raphson optimiser to be used

  BFGS hessian update to be used

  Lower half triangular hessian to be used

  Start of bulk optimisation :

  Cycle:      0 Energy:       -25.923291  Gnorm:     49.734289  CPU:    0.067
  ** Hessian calculated **
  Cycle:      1 Energy:       -33.119141  Gnorm:     13.111551  CPU:    0.069
  Cycle:      2 Energy:       -33.676507  Gnorm:      2.051279  CPU:    0.070
  Cycle:      3 Energy:       -33.715422  Gnorm:      0.589937  CPU:    0.072
  Cycle:      4 Energy:       -33.716797  Gnorm:      0.033637  CPU:    0.073
  Cycle:      5 Energy:       -33.716806  Gnorm:      0.003724  CPU:    0.075


  **** Optimisation achieved ****


  Final energy =     -33.71680594 eV
  Final Gnorm  =       0.00025826

  Components of energy : 

--------------------------------------------------------------------------------
  Interatomic potentials     =           4.78460128 eV    
  Monopole - monopole (real) =          -3.49796197 eV    
  Monopole - monopole (recip)=         -35.00344524 eV    
  Monopole - monopole (total)=         -38.50140721 eV    
--------------------------------------------------------------------------------
  Total lattice energy : 
    Primitive unit cell      =         -33.71680594 eV    
    Non-primitive unit cell  =        -134.86722375 eV    
--------------------------------------------------------------------------------
  Total lattice energy (in kJmol-1): 
    Primitive unit cell      =           -3253.1564 kJ/(mole unit cells)
    Non-primitive unit cell  =          -13012.6255 kJ/(mole unit cells)
--------------------------------------------------------------------------------

  Final asymmetric unit coordinates :

--------------------------------------------------------------------------------
   No.  Atomic        x           y           z         Radius
        Label       (Frac)      (Frac)      (Frac)       (Angs) 
--------------------------------------------------------------------------------
     1  Mg    c     0.000000    0.000000    0.000000    0.000000
     2  O     c     0.500000    0.500000    0.500000    0.000000
     3  O     bs    0.500000    0.500000    0.500000    1.166380
--------------------------------------------------------------------------------

  Final Cartesian lattice vectors (Angstroms) :

        0.000000    2.614399    2.614399
        2.614399    0.000000    2.614399
        2.614399    2.614399    0.000000


  Final cell parameters and derivatives :

--------------------------------------------------------------------------------
       a            3.697318 Angstrom     dE/de1(xx)    -0.000189 eV/strain
       b            3.697318 Angstrom     dE/de2(yy)     0.000000 eV/strain
       c            3.697318 Angstrom     dE/de3(zz)     0.000000 eV/strain
       alpha       60.000000 Degrees      dE/de4(yz)     0.000000 eV/strain
       beta        60.000000 Degrees      dE/de5(xz)     0.000000 eV/strain
       gamma       60.000000 Degrees      dE/de6(xy)     0.000000 eV/strain
--------------------------------------------------------------------------------

  Primitive cell volume =            35.739254 Angs**3

  Density of cell =      1.872938 g/cm**3

  Non-primitive lattice parameters :

  a    =     5.228798  b   =     5.228798  c    =     5.228798
  alpha=    90.000000  beta=    90.000000  gamma=    90.000000

  Non-primitive cell volume =           142.957018 Angs**3


  Final internal derivatives :

--------------------------------------------------------------------------------
   No.  Atomic          a             b             c           Radius
        Label          (eV)          (eV)          (eV)        (eV/Angs)
--------------------------------------------------------------------------------
      1 Mg    c       0.000000      0.000000      0.000000      0.000000
      2 O     c       0.000000      0.000000      0.000000      0.000000
      3 O     bs      0.000000      0.000000      0.000000     -0.000481
--------------------------------------------------------------------------------
  Maximum abs         0.000000      0.000000      0.000000      0.000481
--------------------------------------------------------------------------------

  Comparison of initial and final structures : 

--------------------------------------------------------------------------------
  Parameter   Initial value   Final value   Difference    Units      Percent
--------------------------------------------------------------------------------
    Volume        74.724856    142.957018    68.232162    Angs**3     91.31
    a              4.212000      5.228798     1.016798    Angstroms   24.14
    b              4.212000      5.228798     1.016798    Angstroms   24.14
    c              4.212000      5.228798     1.016798    Angstroms   24.14
    alpha         90.000000     90.000000     0.000000    Degrees      0.00
    beta          90.000000     90.000000     0.000000    Degrees      0.00
    gamma         90.000000     90.000000     0.000000    Degrees      0.00
      1 x          0.000000      0.000000     0.000000    Fractional   0.00
      1 y          0.000000      0.000000     0.000000    Fractional   0.00
      1 z          0.000000      0.000000     0.000000    Fractional   0.00
      2 x          0.500000      0.500000     0.000000    Fractional   0.00
      2 y          0.500000      0.500000     0.000000    Fractional   0.00
      2 z          0.500000      0.500000     0.000000    Fractional   0.00
      3 x          0.500000      0.500000     0.000000    Fractional   0.00
      3 y          0.500000      0.500000     0.000000    Fractional   0.00
      3 z          0.500000      0.500000     0.000000    Fractional   0.00
--------------------------------------------------------------------------------


  Born effective charge tensors : 

-------------------------------------------------------------------------------
  Atom             x           y             z
-------------------------------------------------------------------------------
    1 Mg    x       1.8698      0.0000     -0.0000
            y       0.0000      1.8698      0.0000
            z      -0.0000      0.0000      1.8698
-------------------------------------------------------------------------------
    2 O     x      -1.8698     -0.0000      0.0000
            y      -0.0000     -1.8698     -0.0000
            z       0.0000     -0.0000     -1.8698
-------------------------------------------------------------------------------




  Elastic Constant Matrix: (Units=GPa)

-------------------------------------------------------------------------------
  Indices      1         2         3         4         5         6    
-------------------------------------------------------------------------------
       1    219.4402   52.4679   52.4679   -0.0000    0.0000   -0.0000
       2     52.4679  219.4402   52.4679    0.0000    0.0000   -0.0000
       3     52.4679   52.4679  219.4402    0.0000    0.0000    0.0000
       4     -0.0000    0.0000    0.0000   68.5246    0.0000    0.0000
       5      0.0000    0.0000    0.0000    0.0000   68.5246   -0.0000
       6     -0.0000   -0.0000    0.0000    0.0000   -0.0000   68.5246
-------------------------------------------------------------------------------


  Elastic Compliance Matrix: (Units=1/GPa)

-------------------------------------------------------------------------------
  Indices      1         2         3         4         5         6    
-------------------------------------------------------------------------------
       1    0.005020 -0.000969 -0.000969  0.000000 -0.000000  0.000000
       2   -0.000969  0.005020 -0.000969 -0.000000  0.000000  0.000000
       3   -0.000969 -0.000969  0.005020 -0.000000 -0.000000 -0.000000
       4    0.000000 -0.000000 -0.000000  0.014593 -0.000000 -0.000000
       5   -0.000000  0.000000 -0.000000 -0.000000  0.014593  0.000000
       6    0.000000  0.000000 -0.000000 -0.000000  0.000000  0.014593
-------------------------------------------------------------------------------

  Mechanical properties :

-------------------------------------------------------------------------------
  Convention :                    Reuss         Voigt         Hill
-------------------------------------------------------------------------------
  Bulk  Modulus (GPa)     =     108.12533     108.12533     108.12533
  Shear Modulus (GPa)     =      73.81602      74.50922      74.16262
-------------------------------------------------------------------------------
  Velocity S-wave (km/s)  =       6.27789       6.30730       6.29261
  Velocity P-wave (km/s)  =      10.50141      10.52488      10.51315
-------------------------------------------------------------------------------
  Compressibility (1/GPa) =    0.00924853
-------------------------------------------------------------------------------
  Stress axis :                     x             y             z
-------------------------------------------------------------------------------
  Youngs Moduli (GPa)     =     199.19164     199.19164     199.19164
-------------------------------------------------------------------------------
  Poissons Ratio (x)      =                     0.19296       0.19296
  Poissons Ratio (y)      =       0.19296                     0.19296
  Poissons Ratio (z)      =       0.19296       0.19296
-------------------------------------------------------------------------------


  Piezoelectric Strain Matrix: (Units=C/m**2)

-------------------------------------------------------------------------------
  Indices      1         2         3         4         5         6    
-------------------------------------------------------------------------------
       x    -0.00000   0.00000   0.00000   0.00000   0.00000   0.00000
       y     0.00000   0.00000   0.00000   0.00000   0.00000   0.00000
       z     0.00000   0.00000  -0.00000   0.00000   0.00000   0.00000
-------------------------------------------------------------------------------


  Piezoelectric Stress Matrix: (Units=10**-11 C/N)

-------------------------------------------------------------------------------
  Indices      1         2         3         4         5         6    
-------------------------------------------------------------------------------
       x    -0.00000   0.00000   0.00000   0.00000   0.00000   0.00000
       y     0.00000   0.00000   0.00000   0.00000   0.00000   0.00000
       z     0.00000   0.00000  -0.00000   0.00000   0.00000   0.00000
-------------------------------------------------------------------------------


  Static dielectric constant tensor : 

-------------------------------------------------------------------------------
              x         y         z
-------------------------------------------------------------------------------
       x     4.98105   0.00000  -0.00000
       y     0.00000   4.98105   0.00000
       z    -0.00000   0.00000   4.98105
--------------------------------------------------------------------------------

  High frequency dielectric constant tensor : 

-------------------------------------------------------------------------------
              x         y         z
-------------------------------------------------------------------------------
       x     1.66649   0.00000   0.00000
       y     0.00000   1.66649   0.00000
       z     0.00000   0.00000   1.66649
-------------------------------------------------------------------------------

  Static refractive indices : 

-------------------------------------------------------------------------------
    1 =    2.23183      2 =    2.23183      3 =    2.23183
-------------------------------------------------------------------------------

  High frequency refractive indices : 

-------------------------------------------------------------------------------
    1 =    1.29093      2 =    1.29093      3 =    1.29093
-------------------------------------------------------------------------------


  Phonon Calculation : 

  Number of k points for this configuration =        1

--------------------------------------------------------------------------------
  K point      1 =   0.000000  0.000000  0.000000  Weight =    1.000
--------------------------------------------------------------------------------

  Frequencies (cm-1) [NB: Negative implies an imaginary mode]:

    0.00    0.00    0.00  387.95  387.95  387.95


--------------------------------------------------------------------------------
  Phonon properties (per mole of unit cells): Temperature =      0.000 K
--------------------------------------------------------------------------------
  Zero point energy            =        0.072151 eV
--------------------------------------------------------------------------------

  Time to end of optimisation =       0.0867 seconds


  Peak dynamic memory used =       1.81 MB 


  Timing analysis for GULP :

--------------------------------------------------------------------------------
  Task / Subroutine                                          Time (Seconds)
--------------------------------------------------------------------------------
  Calculation of reciprocal space energy and derivatives          0.0003
  Calculation of reciprocal space energy using symmetry           0.0013
  Calculation of real space energy and derivatives                0.0024
  Calculation of real space energy using symmetry                 0.0124
  Calculation of phonons                                          0.0017
  Symmetry generation of equivalent positions                     0.0043
--------------------------------------------------------------------------------
  Total CPU time                                                  0.0867
--------------------------------------------------------------------------------


  Dump file written as example9.grs


  Job Finished at 20:26.43 25th February   2021                               

