********************************************************************************
*                       GENERAL UTILITY LATTICE PROGRAM                        *
*                                 Julian Gale                                  *
*                       Curtin Institute for Computation                       *
*                    School of Molecular and Life Sciences                     *
*                    Curtin University, Western Australia                      *
********************************************************************************
* Version = 5.2.0 * Last modified =  11th May 2020                             *
********************************************************************************
*  optimise     - perform optimisation run                                     *
*  conp         - constant pressure calculation                                *
*  c6           - use real and reciprocal space sum for C6 terms               *
*  property     - calculate properties for final geometry                      *
*  phonon       - calculate phonons for final geometry                         *
*  compare      - compare initial and final structures                         *
********************************************************************************

  Job Started  at 01:23.23 26th February   2021                               

  Number of CPUs =     1


  Total number of configurations input =      1

********************************************************************************
*  Input for Configuration =   1 : ex04                                        *
********************************************************************************

  Formula = La2O3                                                       

  Number of irreducible atoms/shells =       6


  Total number atoms/shells =      10

  Dimensionality = 3               :  Bulk   


  Symmetry :

  Crystal family                   :  Hexagonal   
  Crystal class  (Groth - 1921)    :  Ditrigonal Scalenohedral             

  Space group (centrosymmetric)    :  P -3 M 1        

  Patterson group                  :  P -3 m 1 

  Cartesian lattice vectors (Angstroms) :

        3.938000    0.000000    0.000000
       -1.969000    3.410408    0.000000
        0.000000    0.000000    6.128000

  Cell parameters (Angstroms/Degrees):

  a =       3.9380    alpha =  90.0000
  b =       3.9380    beta  =  90.0000
  c =       6.1280    gamma = 120.0000

  Initial cell volume =          82.300185 Angs**3

  Temperature of configuration =   0.00     K 

  Pressure of configuration =         0.000 GPa 

  Fractional coordinates of asymmetric unit :

--------------------------------------------------------------------------------
   No.  Atomic       x           y          z         Charge      Occupancy
        Label      (Frac)      (Frac)     (Frac)        (e)         (Frac)  
--------------------------------------------------------------------------------
      1 La    c    0.333333    0.666667    0.245000 *   9.00000    1.000000    
      2 O     c    0.000000    0.000000    0.000000     0.50000    1.000000    
      3 O     c    0.333333    0.666667    0.645000 *   0.50000    1.000000    
      4 La    s    0.333333    0.666667    0.245000 *  -6.00000    1.000000    
      5 O     s    0.000000    0.000000    0.000000    -2.50000    1.000000    
      6 O     s    0.333333    0.666667    0.645000 *  -2.50000    1.000000    
--------------------------------------------------------------------------------


  Constraints : 

--------------------------------------------------------------------------------
  Constraint no.      Unconstrained     Constrained    Coefficient    Offset
                         Variable         Variable
--------------------------------------------------------------------------------
           1              Strain 1        Strain 2       1.00000      0.0000
--------------------------------------------------------------------------------

  Brillouin zone sampling points :

--------------------------------------------------------------------------------
  Point number          x          y          z            Weight
--------------------------------------------------------------------------------
        1           0.000000   0.000000   0.000000     1.00000000
--------------------------------------------------------------------------------


********************************************************************************
*  General input information                                                   *
********************************************************************************

  Species output for all configurations : 

--------------------------------------------------------------------------------
  Species    Type    Atomic    Atomic    Charge       Radii (Angs)     Library
                     Number     Mass       (e)     Cova   Ionic  VDW   Symbol
--------------------------------------------------------------------------------
    La       Core       57     138.91   9.000000   1.870  0.000  2.790          
    La       Shell      57       0.00  -6.000000   1.870  0.000  2.790          
    O        Core        8      16.00   0.500000   0.730  0.000  1.360          
    O        Shell       8       0.00  -2.500000   0.730  0.000  1.360          
--------------------------------------------------------------------------------


  Lattice summation method               =    Ewald          (3-D)
                                         =    Parry          (2-D)
                                         =    Saunders et al (1-D)
  Accuracy factor for lattice sums       =   12.000


  Analytic derivatives to be used

  Time limit = Infinity

  Maximum range for interatomic potentials =    100000.000000 Angstroms

  C6 terms to be calculated in real and reciprocal space 

  General interatomic potentials :

--------------------------------------------------------------------------------
Atom  Types   Potential      Parameter       Value         Units   Cutoffs(Ang)
  1     2                                                            Min /  Max 
--------------------------------------------------------------------------------
O    s La   s Buckingham    Buckingham A     5825.7286    eV        0.000 24.000
                            Buckingham rho  0.29885000    Ang       
                            Buckingham C     38.936500    eV*Ang^6  
--------------------------------------------------------------------------------
O    s O    s Buckingham    Buckingham A     687.01160    eV        0.000 20.000
                            Buckingham rho  0.33536000    Ang       
                            Buckingham C     0.0000000    eV*Ang^6  
--------------------------------------------------------------------------------
La   s La   s Buckingham    Buckingham A     99999.155    eV        0.000 20.000
                            Buckingham rho  0.22030000    Ang       
                            Buckingham C     6.8630000    eV*Ang^6  
--------------------------------------------------------------------------------
La   c La   s Spring (c-s)  Spring k 2       460.00000    eV*Ang^-2 0.000  1.000
                            Spring k 4       0.0000000    eV*Ang^-4 
--------------------------------------------------------------------------------
O    c O    s Spring (c-s)  Spring k 2       27.000000    eV*Ang^-2 0.000  1.000
                            Spring k 4       0.0000000    eV*Ang^-4 
--------------------------------------------------------------------------------

********************************************************************************
*  Output for configuration   1 : ex04                                         *
********************************************************************************


  Components of energy : 

--------------------------------------------------------------------------------
  Interatomic potentials     =          20.43237785 eV    
  Monopole - monopole (real) =         -29.98384222 eV    
  Monopole - monopole (recip)=        -116.84800344 eV    
  Monopole - monopole (total)=        -146.83184566 eV    
  Dispersion (real+recip)    =          -2.49068436 eV    
--------------------------------------------------------------------------------
  Total lattice energy       =        -128.89015218 eV    
--------------------------------------------------------------------------------
  Total lattice energy       =          -12435.9294 kJ/(mole unit cells)
--------------------------------------------------------------------------------


  Number of variables =        6

  Maximum number of calculations  =          1000
  Maximum Hessian update interval =            10
  Maximum step size               =   1.000000000
  Maximum parameter tolerance     =   0.000010000
  Maximum function  tolerance     =   0.000010000
  Maximum gradient  tolerance     =   0.001000000
  Maximum gradient  component     =   0.010000000

  Symmetry constrained optimisation

  Symmetry used for second derivatives

  Cell parameters to be optimised using strains

  Newton-Raphson optimiser to be used

  BFGS hessian update to be used

  Lower half triangular hessian to be used

  Start of bulk optimisation :

  Cycle:      0 Energy:      -128.890152  Gnorm:     72.272567  CPU:    0.055
  ** Hessian calculated **
  Cycle:      1 Energy:      -129.931330  Gnorm:      1.164468  CPU:    0.059
  Cycle:      2 Energy:      -129.992747  Gnorm:      1.476598  CPU:    0.064
  Cycle:      3 Energy:      -129.998814  Gnorm:      0.511158  CPU:    0.071
  Cycle:      4 Energy:      -129.998976  Gnorm:      0.052781  CPU:    0.076


  **** Optimisation achieved ****


  Final energy =    -129.99897753 eV
  Final Gnorm  =       0.00079121

  Components of energy : 

--------------------------------------------------------------------------------
  Interatomic potentials     =          21.17208122 eV    
  Monopole - monopole (real) =         854.81222813 eV    
  Monopole - monopole (recip)=       -1003.53471360 eV    
  Monopole - monopole (total)=        -148.72248547 eV    
  Dispersion (real+recip)    =          -2.44857327 eV    
--------------------------------------------------------------------------------
  Total lattice energy       =        -129.99897753 eV    
--------------------------------------------------------------------------------
  Total lattice energy       =          -12542.9141 kJ/(mole unit cells)
--------------------------------------------------------------------------------

  Final asymmetric unit coordinates :

--------------------------------------------------------------------------------
   No.  Atomic        x           y           z         Radius
        Label       (Frac)      (Frac)      (Frac)       (Angs) 
--------------------------------------------------------------------------------
     1  La    c     0.333333    0.666667    0.248475    0.000000
     2  O     c     0.000000    0.000000    0.000000    0.000000
     3  O     c     0.333333    0.666667    0.635236    0.000000
     4  La    s     0.333333    0.666667    0.239909    0.000000
     5  O     s     0.000000    0.000000    0.000000    0.000000
     6  O     s     0.333333    0.666667    0.634068    0.000000
--------------------------------------------------------------------------------

  Final Cartesian lattice vectors (Angstroms) :

        3.948666    0.000000    0.000000
       -1.974333    3.419645    0.000000
        0.000000    0.000000    6.095026


  Final cell parameters and derivatives :

--------------------------------------------------------------------------------
       a            3.948666 Angstrom     dE/de1(xx)     0.000473 eV/strain
       b            3.948666 Angstrom     dE/de2(yy)     0.000000 eV/strain
       c            6.095026 Angstrom     dE/de3(zz)    -0.000373 eV/strain
       alpha       90.000000 Degrees      dE/de4(yz)     0.000000 eV/strain
       beta        90.000000 Degrees      dE/de5(xz)     0.000000 eV/strain
       gamma      120.000000 Degrees      dE/de6(xy)     0.000000 eV/strain
--------------------------------------------------------------------------------

  Primitive cell volume =            82.301347 Angs**3

  Density of cell =      6.573956 g/cm**3

  Non-primitive cell volume =            82.301347 Angs**3


  Final internal derivatives :

--------------------------------------------------------------------------------
   No.  Atomic          a             b             c           Radius
        Label          (eV)          (eV)          (eV)        (eV/Angs)
--------------------------------------------------------------------------------
      1 La    c       0.000000      0.000000     -0.002977      0.000000
      2 O     c       0.000000      0.000000      0.000000      0.000000
      3 O     c       0.000000      0.000000      0.001088      0.000000
      4 La    s       0.000000      0.000000      0.003304      0.000000
      5 O     s       0.000000      0.000000      0.000000      0.000000
      6 O     s       0.000000      0.000000     -0.001100      0.000000
--------------------------------------------------------------------------------
  Maximum abs         0.000000      0.000000      0.003304      0.000000
--------------------------------------------------------------------------------

  Comparison of initial and final structures : 

--------------------------------------------------------------------------------
  Parameter   Initial value   Final value   Difference    Units      Percent
--------------------------------------------------------------------------------
    Volume        82.300185     82.301347     0.001162    Angs**3      0.00
    a              3.938000      3.948666     0.010666    Angstroms    0.27
    b              3.938000      3.948666     0.010666    Angstroms    0.27
    c              6.128000      6.095026    -0.032974    Angstroms   -0.54
    alpha         90.000000     90.000000     0.000000    Degrees      0.00
    beta          90.000000     90.000000     0.000000    Degrees      0.00
    gamma        120.000000    120.000000     0.000000    Degrees      0.00
      1 x          0.333333      0.333333     0.000000    Fractional   0.00
      1 y          0.666667      0.666667     0.000000    Fractional   0.00
      1 z          0.245000      0.248475     0.003475    Fractional   1.42
      2 x          0.000000      0.000000     0.000000    Fractional   0.00
      2 y          0.000000      0.000000     0.000000    Fractional   0.00
      2 z          0.000000      0.000000     0.000000    Fractional   0.00
      3 x          0.333333      0.333333     0.000000    Fractional   0.00
      3 y          0.666667      0.666667     0.000000    Fractional   0.00
      3 z          0.645000      0.635236     0.009764    Fractional   1.51
      4 x          0.333333      0.333333     0.000000    Fractional   0.00
      4 y          0.666667      0.666667     0.000000    Fractional   0.00
      4 z          0.245000      0.239909     0.005091    Fractional   2.08
      5 x          0.000000      0.000000     0.000000    Fractional   0.00
      5 y          0.000000      0.000000     0.000000    Fractional   0.00
      5 z          0.000000      0.000000     0.000000    Fractional   0.00
      6 x          0.333333      0.333333     0.000000    Fractional   0.00
      6 y          0.666667      0.666667     0.000000    Fractional   0.00
      6 z          0.645000      0.634068     0.010932    Fractional   1.69
--------------------------------------------------------------------------------


  Born effective charge tensors : 

-------------------------------------------------------------------------------
  Atom             x           y             z
-------------------------------------------------------------------------------
    1 La    x       3.4989     -0.0000      0.0000
            y      -0.0000      3.4989     -0.0000
            z       0.0000     -0.0000      3.6743
-------------------------------------------------------------------------------
    2 O     x      -2.7020      0.0000      0.0000
            y       0.0000     -2.7020     -0.0000
            z       0.0000     -0.0000     -2.7670
-------------------------------------------------------------------------------
    3 O     x      -2.1479     -0.0000     -0.0000
            y      -0.0000     -2.1479      0.0000
            z       0.0000      0.0000     -2.2908
-------------------------------------------------------------------------------




  Elastic Constant Matrix: (Units=GPa)

-------------------------------------------------------------------------------
  Indices      1         2         3         4         5         6    
-------------------------------------------------------------------------------
       1    316.6030  152.4258  119.7323   44.5558   -0.0000    0.0000
       2    152.4258  316.6030  119.7323  -44.5558   -0.0000    0.0000
       3    119.7323  119.7323  220.3485   -0.0000   -0.0000    0.0000
       4     44.5558  -44.5558   -0.0000  113.1726    0.0000   -0.0000
       5     -0.0000   -0.0000   -0.0000    0.0000  113.1726   44.5558
       6      0.0000    0.0000    0.0000   -0.0000   44.5558   82.0886
-------------------------------------------------------------------------------


  Elastic Compliance Matrix: (Units=1/GPa)

-------------------------------------------------------------------------------
  Indices      1         2         3         4         5         6    
-------------------------------------------------------------------------------
       1    0.005348 -0.002398 -0.001603 -0.003050  0.000000 -0.000000
       2   -0.002398  0.005348 -0.001603  0.003050 -0.000000  0.000000
       3   -0.001603 -0.001603  0.006281  0.000000 -0.000000  0.000000
       4   -0.003050  0.003050  0.000000  0.011237 -0.000000  0.000000
       5    0.000000 -0.000000 -0.000000 -0.000000  0.011237 -0.006099
       6   -0.000000  0.000000  0.000000  0.000000 -0.006099  0.015493
-------------------------------------------------------------------------------

  Mechanical properties :

-------------------------------------------------------------------------------
  Convention :                    Reuss         Voigt         Hill
-------------------------------------------------------------------------------
  Bulk  Modulus (GPa)     =     173.34898     181.92614     177.63756
  Shear Modulus (GPa)     =      73.44653      92.46437      82.95545
-------------------------------------------------------------------------------
  Velocity S-wave (km/s)  =       3.34251       3.75037       3.55230
  Velocity P-wave (km/s)  =       6.42382       6.81377       6.62167
-------------------------------------------------------------------------------
  Compressibility (1/GPa) =    0.00576871
-------------------------------------------------------------------------------
  Stress axis :                     x             y             z
-------------------------------------------------------------------------------
  Youngs Moduli (GPa)     =     186.96955     186.96955     159.21870
-------------------------------------------------------------------------------
  Poissons Ratio (x)      =                     0.44832       0.25528
  Poissons Ratio (y)      =       0.44832                     0.25528
  Poissons Ratio (z)      =       0.29977       0.29977
-------------------------------------------------------------------------------


  Piezoelectric Strain Matrix: (Units=C/m**2)

-------------------------------------------------------------------------------
  Indices      1         2         3         4         5         6    
-------------------------------------------------------------------------------
       x    -0.00000  -0.00000  -0.00000   0.00000  -0.00000   0.00000
       y     0.00000  -0.00000  -0.00000  -0.00000   0.00000  -0.00000
       z    -0.00000  -0.00000  -0.00000  -0.00000  -0.00000   0.00000
-------------------------------------------------------------------------------


  Piezoelectric Stress Matrix: (Units=10**-11 C/N)

-------------------------------------------------------------------------------
  Indices      1         2         3         4         5         6    
-------------------------------------------------------------------------------
       x    -0.00000   0.00000  -0.00000   0.00000  -0.00000   0.00000
       y     0.00000  -0.00000  -0.00000  -0.00000   0.00000  -0.00000
       z    -0.00000   0.00000  -0.00000   0.00000  -0.00000   0.00000
-------------------------------------------------------------------------------


  Static dielectric constant tensor : 

-------------------------------------------------------------------------------
              x         y         z
-------------------------------------------------------------------------------
       x    15.72274  -0.00000  -0.00000
       y    -0.00000  15.72274  -0.00000
       z    -0.00000  -0.00000  22.18524
--------------------------------------------------------------------------------

  High frequency dielectric constant tensor : 

-------------------------------------------------------------------------------
              x         y         z
-------------------------------------------------------------------------------
       x     3.80945   0.00000  -0.00000
       y     0.00000   3.80945   0.00000
       z    -0.00000   0.00000   3.91714
-------------------------------------------------------------------------------

  Static refractive indices : 

-------------------------------------------------------------------------------
    1 =    3.96519      2 =    3.96519      3 =    4.71012
-------------------------------------------------------------------------------

  High frequency refractive indices : 

-------------------------------------------------------------------------------
    1 =    1.95178      2 =    1.95178      3 =    1.97918
-------------------------------------------------------------------------------


  Phonon Calculation : 

  Number of k points for this configuration =        1

--------------------------------------------------------------------------------
  K point      1 =   0.000000  0.000000  0.000000  Weight =    1.000
--------------------------------------------------------------------------------

  Frequencies (cm-1) [NB: Negative implies an imaginary mode]:

   -0.00   -0.00    0.00  130.87  130.87  205.55  234.24  234.24  255.81
  390.88  390.88  404.88  404.88  424.64  452.74


--------------------------------------------------------------------------------
  Phonon properties (per mole of unit cells): Temperature =      0.000 K
--------------------------------------------------------------------------------
  Zero point energy            =        0.226923 eV
--------------------------------------------------------------------------------

  Phonon density of states : 

--------------------------------------------------------------------------------
 Frequency (cm-1) Density of States                                             
--------------------------------------------------------------------------------
    0.00000 |******************************                                0.077
    7.07413 |                                                              0.000
   14.14825 |                                                              0.000
   21.22238 |                                                              0.000
   28.29651 |                                                              0.000
   35.37064 |                                                              0.000
   42.44476 |                                                              0.000
   49.51889 |                                                              0.000
   56.59302 |                                                              0.000
   63.66714 |                                                              0.000
   70.74127 |                                                              0.000
   77.81540 |                                                              0.000
   84.88953 |                                                              0.000
   91.96365 |                                                              0.000
   99.03778 |                                                              0.000
  106.11191 |                                                              0.000
  113.18603 |                                                              0.000
  120.26016 |                                                              0.000
  127.33429 |************************************************************  0.154
  134.40842 |                                                              0.000
  141.48254 |                                                              0.000
  148.55667 |                                                              0.000
  155.63080 |                                                              0.000
  162.70492 |                                                              0.000
  169.77905 |                                                              0.000
  176.85318 |                                                              0.000
  183.92731 |                                                              0.000
  191.00143 |                                                              0.000
  198.07556 |                                                              0.000
  205.14969 |******************************                                0.077
  212.22381 |                                                              0.000
  219.29794 |                                                              0.000
  226.37207 |                                                              0.000
  233.44620 |************************************************************  0.154
  240.52032 |                                                              0.000
  247.59445 |                                                              0.000
  254.66858 |******************************                                0.077
  261.74270 |                                                              0.000
  268.81683 |                                                              0.000
  275.89096 |                                                              0.000
  282.96509 |                                                              0.000
  290.03921 |                                                              0.000
  297.11334 |                                                              0.000
  304.18747 |                                                              0.000
  311.26159 |                                                              0.000
  318.33572 |                                                              0.000
  325.40985 |                                                              0.000
  332.48398 |                                                              0.000
  339.55810 |                                                              0.000
  346.63223 |                                                              0.000
  353.70636 |                                                              0.000
  360.78048 |                                                              0.000
  367.85461 |                                                              0.000
  374.92874 |                                                              0.000
  382.00287 |                                                              0.000
  389.07699 |************************************************************  0.154
  396.15112 |                                                              0.000
  403.22525 |************************************************************  0.154
  410.29937 |                                                              0.000
  417.37350 |                                                              0.000
  424.44763 |******************************                                0.077
  431.52176 |                                                              0.000
  438.59588 |                                                              0.000
  445.67001 |******************************                                0.077
--------------------------------------------------------------------------------



  Time to end of optimisation =       0.0980 seconds


  Peak dynamic memory used =       1.84 MB 


  Timing analysis for GULP :

--------------------------------------------------------------------------------
  Task / Subroutine                                          Time (Seconds)
--------------------------------------------------------------------------------
  Calculation of reciprocal space energy and derivatives          0.0036
  Calculation of reciprocal space energy using symmetry           0.0076
  Calculation of real space energy and derivatives                0.0075
  Calculation of real space energy using symmetry                 0.0268
  Calculation of phonons                                          0.0026
  Symmetry generation of equivalent positions                     0.0014
--------------------------------------------------------------------------------
  Total CPU time                                                  0.0980
--------------------------------------------------------------------------------


  Dump file written as example4.grs


  Job Finished at 01:23.23 26th February   2021                               

