********************************************************************************
*                       GENERAL UTILITY LATTICE PROGRAM                        *
*                                 Julian Gale                                  *
*                       Curtin Institute for Computation                       *
*                    School of Molecular and Life Sciences                     *
*                    Curtin University, Western Australia                      *
********************************************************************************
* Version = 5.2.0 * Last modified =  10th September 2020                       *
********************************************************************************
*  fit          - perform fitting run                                          *
*  optimise     - perform optimisation run after fitting                       *
*  conp         - constant pressure calculation                                *
*  property     - calculate properties for final geometry                      *
*  phonon       - calculate phonons for final geometry                         *
*  relax        - relax structure during fitting                               *
*  distance     - calculate distances                                          *
*  compare      - compare initial and final structures                         *
********************************************************************************

  Job Started  at 18:37.58  7th December   2020                               

  Number of CPUs =     1


  Total number of configurations input =     27

********************************************************************************
*  Input for Configuration =   1 : DyFeO3                                      *
********************************************************************************

  Formula = Dy4Fe4O12                                                   

  Number of irreducible atoms/shells =       6


  Total number atoms/shells =      32

  Dimensionality = 3               :  Bulk   


  Symmetry :

  Crystal family                   :  Orthorhombic
  Crystal class  (Groth - 1921)    :  Orthorhombic Bipyramidal             

  Space group (centrosymmetric)    :  P N M A         

  Patterson group                  :  P m m m  

  Cartesian lattice vectors (Angstroms) :

        5.598000    0.000000    0.000000
        0.000000    7.623000    0.000000
        0.000000    0.000000    5.302000

  Cell parameters (Angstroms/Degrees):

  a =       5.5980    alpha =  90.0000
  b =       7.6230    beta  =  90.0000
  c =       5.3020    gamma =  90.0000

  Initial cell volume =         226.255183 Angs**3

  Temperature of configuration =   0.00     K 

  Pressure of configuration =         0.000 GPa 

  Fractional coordinates of asymmetric unit :

--------------------------------------------------------------------------------
   No.  Atomic       x           y          z         Charge      Occupancy
        Label      (Frac)      (Frac)     (Frac)        (e)         (Frac)  
--------------------------------------------------------------------------------
      1 Dy    c    0.066500 *  0.250000    0.482900 *   3.00000    1.000000    
      2 Fe    c    0.000000    0.000000    0.000000     3.00000    1.000000    
      3 O1    c    0.511000 *  0.250000    0.569000 *   0.24000    1.000000    
      4 O2    c    0.219000 *  0.039000 *  0.280000 *   0.24000    1.000000    
      5 O1    s    0.511000 *  0.250000    0.569000 *  -2.24000    1.000000    
      6 O2    s    0.219000 *  0.039000 *  0.280000 *  -2.24000    1.000000    
--------------------------------------------------------------------------------



  Distance calculation :


  Cutoff for distances  =      5.000000 Angstroms

--------------------------------------------------------------------------------
  Asymmetric unit site  Full lattice sites    No.  Distance      No.  Distance
      No.   At.No.            At.No.                (Angs)             (Angs) 
--------------------------------------------------------------------------------
       1   Dy    core        Dy    core         2    3.7328        2    3.8878
                                                2    3.9820
                             Fe    core         2    3.0869        2    3.2134
                                                2    3.3596        2    3.7010
                             O     core         2    2.1150        1    2.3961
                                                1    2.5298        2    2.8834
                                                1    2.9426        2    2.9625
                                                2    2.9980        1    3.1430
                                                2    4.2276        2    4.4195
                                                2    4.4927        2    4.4941
                                                2    4.6018        2    4.6524
                                                2    4.7362        2    4.8753
                                                2    4.9368
                             O     shell        2    2.1150        1    2.3961
                                                1    2.5298        2    2.8834
                                                1    2.9426        2    2.9625
                                                2    2.9980        1    3.1430
                                                2    4.2276        2    4.4195
                                                2    4.4927        2    4.4941
                                                2    4.6018        2    4.6524
                                                2    4.7362        2    4.8753
                                                2    4.9368
--------------------------------------------------------------------------------
       2   Fe    core        Dy    core         2    3.0869        2    3.2134
                                                2    3.3596        2    3.7010
                             Fe    core         2    3.8115        4    3.8552
                             O     core         2    1.9415        2    1.9481
                                                2    1.9808        2    4.0071
                                                2    4.0205        2    4.0230
                                                2    4.0432        2    4.1276
                                                2    4.2011        2    4.4346
                                                2    4.4974        2    4.5375
                                                2    4.5516        2    4.5734
                                                2    4.6268
                             O     shell        2    1.9415        2    1.9481
                                                2    1.9808        2    4.0071
                                                2    4.0205        2    4.0230
                                                2    4.0432        2    4.1276
                                                2    4.2011        2    4.4346
                                                2    4.4974        2    4.5375
                                                2    4.5516        2    4.5734
                                                2    4.6268
--------------------------------------------------------------------------------
       3   O1    core        Dy    core         1    2.3961        1    2.5298
                                                1    2.9426        1    3.1430
                                                2    4.4195        2    4.4941
                                                2    4.9368
                             Fe    core         2    1.9415        2    4.0432
                                                2    4.1276        2    4.4974
                                                2    4.5734
                             O     core         2    2.7142        2    2.7581
                                                2    2.7862        2    2.7891
                                                2    3.3938        2    3.8830
                                                2    3.9820        2    4.3905
                                                2    4.4125        2    4.5435
                                                2    4.7111        2    4.9001
                                                2    4.9684
                             O     shell        2    2.7142        2    2.7581
                                                2    2.7862        2    2.7891
                                                2    3.3938        2    3.8830
                                                2    3.9820        2    4.3905
                                                2    4.4125        2    4.5435
                                                2    4.7111        2    4.9001
                                                2    4.9684
--------------------------------------------------------------------------------
       4   O2    core        Dy    core         1    2.1150        1    2.8834
                                                1    2.9625        1    2.9980
                                                1    4.2276        1    4.4927
                                                1    4.6018        1    4.6524
                                                1    4.7362        1    4.8753
                             Fe    core         1    1.9481        1    1.9808
                                                1    4.0071        1    4.0205
                                                1    4.0230        1    4.2011
                                                1    4.4346        1    4.5375
                                                1    4.5516        1    4.6268
                             O     core         1    2.7142        2    2.7389
                                                1    2.7581        1    2.7862
                                                1    2.7891        2    2.8170
                                                1    3.2169        1    3.4362
                                                1    3.8963        1    3.9615
                                                1    3.9820        2    4.2760
                                                1    4.3666        1    4.4061
                                                1    4.4125        1    4.5435
                                                4    4.6557        1    4.7111
                                                1    4.9001        1    4.9684
                             O     shell        1    2.7142        2    2.7389
                                                1    2.7581        1    2.7862
                                                1    2.7891        2    2.8170
                                                1    3.2169        1    3.4362
                                                1    3.8963        1    3.9615
                                                1    3.9820        2    4.2760
                                                1    4.3666        1    4.4061
                                                1    4.4125        1    4.5435
                                                4    4.6557        1    4.7111
                                                1    4.9001        1    4.9684
--------------------------------------------------------------------------------
       5   O1    shell       Dy    core         1    2.3961        1    2.5298
                                                1    2.9426        1    3.1430
                                                2    4.4195        2    4.4941
                                                2    4.9368
                             Fe    core         2    1.9415        2    4.0432
                                                2    4.1276        2    4.4974
                                                2    4.5734
                             O     core         2    2.7142        2    2.7581
                                                2    2.7862        2    2.7891
                                                2    3.3938        2    3.8830
                                                2    3.9820        2    4.3905
                                                2    4.4125        2    4.5435
                                                2    4.7111        2    4.9001
                                                2    4.9684
                             O     shell        2    2.7142        2    2.7581
                                                2    2.7862        2    2.7891
                                                2    3.3938        2    3.8830
                                                2    3.9820        2    4.3905
                                                2    4.4125        2    4.5435
                                                2    4.7111        2    4.9001
                                                2    4.9684
--------------------------------------------------------------------------------
       6   O2    shell       Dy    core         1    2.1150        1    2.8834
                                                1    2.9625        1    2.9980
                                                1    4.2276        1    4.4927
                                                1    4.6018        1    4.6524
                                                1    4.7362        1    4.8753
                             Fe    core         1    1.9481        1    1.9808
                                                1    4.0071        1    4.0205
                                                1    4.0230        1    4.2011
                                                1    4.4346        1    4.5375
                                                1    4.5516        1    4.6268
                             O     core         1    2.7142        2    2.7389
                                                1    2.7581        1    2.7862
                                                1    2.7891        2    2.8170
                                                1    3.2169        1    3.4362
                                                1    3.8963        1    3.9615
                                                1    3.9820        2    4.2760
                                                1    4.3666        1    4.4061
                                                1    4.4125        1    4.5435
                                                4    4.6557        1    4.7111
                                                1    4.9001        1    4.9684
                             O     shell        1    2.7142        2    2.7389
                                                1    2.7581        1    2.7862
                                                1    2.7891        2    2.8170
                                                1    3.2169        1    3.4362
                                                1    3.8963        1    3.9615
                                                1    3.9820        2    4.2760
                                                1    4.3666        1    4.4061
                                                1    4.4125        1    4.5435
                                                4    4.6557        1    4.7111
                                                1    4.9001        1    4.9684
--------------------------------------------------------------------------------


  Brillouin zone sampling points :

--------------------------------------------------------------------------------
  Point number          x          y          z            Weight
--------------------------------------------------------------------------------
        1           0.000000   0.000000   0.000000     1.00000000
--------------------------------------------------------------------------------


********************************************************************************
*  Input for Configuration =   2 : Dy2O3                                       *
********************************************************************************

  Formula = Dy16O24                                                     

  Number of irreducible atoms/shells =       4


  Total number atoms/shells =      64

  Dimensionality = 3               :  Bulk   


  Symmetry :

  Crystal family                   :  Cubic       
  Crystal class  (Groth - 1921)    :  Cubic Dyakisdodecahedral             

  Space group (centrosymmetric)    :  I A 3           

  Patterson group                  :  I m -3   

  Cartesian lattice vectors (Angstroms) :

       -5.335000    5.335000    5.335000
        5.335000   -5.335000    5.335000
        5.335000    5.335000   -5.335000

  Primitive cell parameters :            Full cell parameters :

  a =   9.2405    alpha = 109.4712       a =  10.6700    alpha =  90.0000
  b =   9.2405    beta  = 109.4712       b =  10.6700    beta  =  90.0000
  c =   9.2405    gamma = 109.4712       c =  10.6700    gamma =  90.0000

  Initial volumes (Angstroms**3):

  Primitive cell =         607.383882    Full cell =        1214.767763

  Temperature of configuration =   0.00     K 

  Pressure of configuration =         0.000 GPa 

  Fractional coordinates of asymmetric unit :

--------------------------------------------------------------------------------
   No.  Atomic       x           y          z         Charge      Occupancy
        Label      (Frac)      (Frac)     (Frac)        (e)         (Frac)  
--------------------------------------------------------------------------------
      1 Dy1   c    0.250000    0.250000    0.250000     3.00000    1.000000    
      2 Dy2   c    0.967500 *  0.000000    0.250000     3.00000    1.000000    
      3 O1    c    0.391100 *  0.151500 *  0.379500 *   0.24000    1.000000    
      4 O1    s    0.391100 *  0.151500 *  0.379500 *  -2.24000    1.000000    
--------------------------------------------------------------------------------


  Constraints : 

--------------------------------------------------------------------------------
  Constraint no.      Unconstrained     Constrained    Coefficient    Offset
                         Variable         Variable
--------------------------------------------------------------------------------
           1              Strain 1        Strain 2       1.00000      0.0000
           2              Strain 1        Strain 3       1.00000      0.0000
--------------------------------------------------------------------------------


  Distance calculation :


  Cutoff for distances  =      5.000000 Angstroms

--------------------------------------------------------------------------------
  Asymmetric unit site  Full lattice sites    No.  Distance      No.  Distance
      No.   At.No.            At.No.                (Angs)             (Angs) 
--------------------------------------------------------------------------------
       1   Dy1   core        Dy    core         6    3.5357        6    4.0251
                             O     core         6    2.2979        6    4.2046
                                                6    4.3588        6    4.7464
                             O     shell        6    2.2979        6    4.2046
                                                6    4.3588        6    4.7464
--------------------------------------------------------------------------------
       2   Dy2   core        Dy    core         2    3.5357        4    3.5527
                                                2    4.0251        4    4.0400
                             O     core         2    2.2627        2    2.2775
                                                2    2.3520        2    4.0203
                                                2    4.2441        2    4.4046
                                                2    4.4914        2    4.5217
                                                2    4.5296        2    4.5370
                                                2    4.7453        2    4.9951
                             O     shell        2    2.2627        2    2.2775
                                                2    2.3520        2    4.0203
                                                2    4.2441        2    4.4046
                                                2    4.4914        2    4.5217
                                                2    4.5296        2    4.5370
                                                2    4.7453        2    4.9951
--------------------------------------------------------------------------------
       3   O1    core        Dy    core         1    2.2627        1    2.2775
                                                1    2.2979        1    2.3520
                                                1    4.0203        1    4.2046
                                                1    4.2441        1    4.3588
                                                1    4.4046        1    4.4914
                                                1    4.5217        1    4.5296
                                                1    4.5370        1    4.7453
                                                1    4.7464        1    4.9951
                             O     core         2    2.9402        2    2.9415
                                                1    3.1335        2    3.4808
                                                2    3.5312        2    3.7176
                                                1    3.9597        1    4.2532
                                                2    4.5771        1    4.5959
                                                2    4.6877        1    4.7398
                                                2    4.8932
                             O     shell        2    2.9402        2    2.9415
                                                1    3.1335        2    3.4808
                                                2    3.5312        2    3.7176
                                                1    3.9597        1    4.2532
                                                2    4.5771        1    4.5959
                                                2    4.6877        1    4.7398
                                                2    4.8932
--------------------------------------------------------------------------------
       4   O1    shell       Dy    core         1    2.2627        1    2.2775
                                                1    2.2979        1    2.3520
                                                1    4.0203        1    4.2046
                                                1    4.2441        1    4.3588
                                                1    4.4046        1    4.4914
                                                1    4.5217        1    4.5296
                                                1    4.5370        1    4.7453
                                                1    4.7464        1    4.9951
                             O     core         2    2.9402        2    2.9415
                                                1    3.1335        2    3.4808
                                                2    3.5312        2    3.7176
                                                1    3.9597        1    4.2532
                                                2    4.5771        1    4.5959
                                                2    4.6877        1    4.7398
                                                2    4.8932
                             O     shell        2    2.9402        2    2.9415
                                                1    3.1335        2    3.4808
                                                2    3.5312        2    3.7176
                                                1    3.9597        1    4.2532
                                                2    4.5771        1    4.5959
                                                2    4.6877        1    4.7398
                                                2    4.8932
--------------------------------------------------------------------------------


  Brillouin zone sampling points :

--------------------------------------------------------------------------------
  Point number          x          y          z            Weight
--------------------------------------------------------------------------------
        1           0.000000   0.000000   0.000000     1.00000000
--------------------------------------------------------------------------------


********************************************************************************
*  Input for Configuration =   3 : ErFeO3                                      *
********************************************************************************

  Formula = Er4Fe4O12                                                   

  Number of irreducible atoms/shells =       6


  Total number atoms/shells =      32

  Dimensionality = 3               :  Bulk   


  Symmetry :

  Crystal family                   :  Orthorhombic
  Crystal class  (Groth - 1921)    :  Orthorhombic Bipyramidal             

  Space group (centrosymmetric)    :  P N M A         

  Patterson group                  :  P m m m  

  Cartesian lattice vectors (Angstroms) :

        5.582000    0.000000    0.000000
        0.000000    7.591000    0.000000
        0.000000    0.000000    5.263000

  Cell parameters (Angstroms/Degrees):

  a =       5.5820    alpha =  90.0000
  b =       7.5910    beta  =  90.0000
  c =       5.2630    gamma =  90.0000

  Initial cell volume =         223.008899 Angs**3

  Temperature of configuration =   0.00     K 

  Pressure of configuration =         0.000 GPa 

  Fractional coordinates of asymmetric unit :

--------------------------------------------------------------------------------
   No.  Atomic       x           y          z         Charge      Occupancy
        Label      (Frac)      (Frac)     (Frac)        (e)         (Frac)  
--------------------------------------------------------------------------------
      1 Er    c    0.069100 *  0.250000    0.481600 *   3.00000    1.000000    
      2 Fe    c    0.000000    0.000000    0.000000     3.00000    1.000000    
      3 O1    c    0.459400 *  0.250000    0.613700 *   0.24000    1.000000    
      4 O2    c    0.305900 *  0.057300 *  0.191000 *   0.24000    1.000000    
      5 O1    s    0.459400 *  0.250000    0.613700 *  -2.24000    1.000000    
      6 O2    s    0.305900 *  0.057300 *  0.191000 *  -2.24000    1.000000    
--------------------------------------------------------------------------------



  Distance calculation :


  Cutoff for distances  =      5.000000 Angstroms

--------------------------------------------------------------------------------
  Asymmetric unit site  Full lattice sites    No.  Distance      No.  Distance
      No.   At.No.            At.No.                (Angs)             (Angs) 
--------------------------------------------------------------------------------
       1   Er    core        Er    core         2    3.7058        2    3.8779
                                                2    3.9713
                             Fe    core         2    3.0653        2    3.1898
                                                2    3.3458        2    3.7017
                             O     core         1    2.2162        2    2.2635
                                                1    2.2869        2    2.4952
                                                2    2.6726        1    3.1923
                                                1    3.4736        2    3.5766
                                                2    4.2221        2    4.2638
                                                2    4.4587        2    4.5367
                                                2    4.6459        2    4.7280
                                                2    4.7569        2    4.8210
                                                2    4.8229        2    4.8333
                             O     shell        1    2.2162        2    2.2635
                                                1    2.2869        2    2.4952
                                                2    2.6726        1    3.1923
                                                1    3.4736        2    3.5766
                                                2    4.2221        2    4.2638
                                                2    4.4587        2    4.5367
                                                2    4.6459        2    4.7280
                                                2    4.7569        2    4.8210
                                                2    4.8229        2    4.8333
--------------------------------------------------------------------------------
       2   Fe    core        Er    core         2    3.0653        2    3.1898
                                                2    3.3458        2    3.7017
                             Fe    core         2    3.7955        4    3.8359
                             O     core         2    2.0020        2    2.0027
                                                2    2.0286        2    3.7830
                                                2    3.8195        2    3.8874
                                                2    3.9012        2    4.0263
                                                2    4.1038        2    4.5398
                                                2    4.6080        2    4.6600
                                                2    4.6715        2    4.8032
                                                2    4.8104
                             O     shell        2    2.0020        2    2.0027
                                                2    2.0286        2    3.7830
                                                2    3.8195        2    3.8874
                                                2    3.9012        2    4.0263
                                                2    4.1038        2    4.5398
                                                2    4.6080        2    4.6600
                                                2    4.6715        2    4.8032
                                                2    4.8104
--------------------------------------------------------------------------------
       3   O1    core        Er    core         1    2.2162        1    2.2869
                                                1    3.1923        1    3.4736
                                                2    4.2638        2    4.6459
                                                2    4.8333
                             Fe    core         2    2.0027        2    3.7830
                                                2    4.1038        2    4.5398
                                                2    4.8104
                             O     core         2    2.7929        2    2.7970
                                                2    2.8661        2    2.9073
                                                2    3.1382        2    3.4793
                                                2    4.0054        2    4.2448
                                                2    4.3900        2    4.7356
                                                2    4.7377        2    4.9747
                             O     shell        2    2.7929        2    2.7970
                                                2    2.8661        2    2.9073
                                                2    3.1382        2    3.4793
                                                2    4.0054        2    4.2448
                                                2    4.3900        2    4.7356
                                                2    4.7377        2    4.9747
--------------------------------------------------------------------------------
       4   O2    core        Er    core         1    2.2635        1    2.4952
                                                1    2.6726        1    3.5766
                                                1    4.2221        1    4.4587
                                                1    4.5367        1    4.7280
                                                1    4.7569        1    4.8210
                                                1    4.8229
                             Fe    core         1    2.0020        1    2.0286
                                                1    3.8195        1    3.8874
                                                1    3.9012        1    4.0263
                                                1    4.6080        1    4.6600
                                                1    4.6715        1    4.8032
                             O     core         1    2.7929        1    2.7970
                                                2    2.8410        2    2.8593
                                                1    2.8661        1    2.9073
                                                1    2.9256        1    3.0813
                                                1    3.4793        1    4.0039
                                                1    4.0573        2    4.0908
                                                1    4.2448        1    4.3900
                                                4    4.6605        1    4.6654
                                                1    4.7356        1    4.7957
                                                2    4.8108        1    4.9747
                             O     shell        1    2.7929        1    2.7970
                                                2    2.8410        2    2.8593
                                                1    2.8661        1    2.9073
                                                1    2.9256        1    3.0813
                                                1    3.4793        1    4.0039
                                                1    4.0573        2    4.0908
                                                1    4.2448        1    4.3900
                                                4    4.6605        1    4.6654
                                                1    4.7356        1    4.7957
                                                2    4.8108        1    4.9747
--------------------------------------------------------------------------------
       5   O1    shell       Er    core         1    2.2162        1    2.2869
                                                1    3.1923        1    3.4736
                                                2    4.2638        2    4.6459
                                                2    4.8333
                             Fe    core         2    2.0027        2    3.7830
                                                2    4.1038        2    4.5398
                                                2    4.8104
                             O     core         2    2.7929        2    2.7970
                                                2    2.8661        2    2.9073
                                                2    3.1382        2    3.4793
                                                2    4.0054        2    4.2448
                                                2    4.3900        2    4.7356
                                                2    4.7377        2    4.9747
                             O     shell        2    2.7929        2    2.7970
                                                2    2.8661        2    2.9073
                                                2    3.1382        2    3.4793
                                                2    4.0054        2    4.2448
                                                2    4.3900        2    4.7356
                                                2    4.7377        2    4.9747
--------------------------------------------------------------------------------
       6   O2    shell       Er    core         1    2.2635        1    2.4952
                                                1    2.6726        1    3.5766
                                                1    4.2221        1    4.4587
                                                1    4.5367        1    4.7280
                                                1    4.7569        1    4.8210
                                                1    4.8229
                             Fe    core         1    2.0020        1    2.0286
                                                1    3.8195        1    3.8874
                                                1    3.9012        1    4.0263
                                                1    4.6080        1    4.6600
                                                1    4.6715        1    4.8032
                             O     core         1    2.7929        1    2.7970
                                                2    2.8410        2    2.8593
                                                1    2.8661        1    2.9073
                                                1    2.9256        1    3.0813
                                                1    3.4793        1    4.0039
                                                1    4.0573        2    4.0908
                                                1    4.2448        1    4.3900
                                                4    4.6605        1    4.6654
                                                1    4.7356        1    4.7957
                                                2    4.8108        1    4.9747
                             O     shell        1    2.7929        1    2.7970
                                                2    2.8410        2    2.8593
                                                1    2.8661        1    2.9073
                                                1    2.9256        1    3.0813
                                                1    3.4793        1    4.0039
                                                1    4.0573        2    4.0908
                                                1    4.2448        1    4.3900
                                                4    4.6605        1    4.6654
                                                1    4.7356        1    4.7957
                                                2    4.8108        1    4.9747
--------------------------------------------------------------------------------


  Brillouin zone sampling points :

--------------------------------------------------------------------------------
  Point number          x          y          z            Weight
--------------------------------------------------------------------------------
        1           0.000000   0.000000   0.000000     1.00000000
--------------------------------------------------------------------------------


********************************************************************************
*  Input for Configuration =   4 : Er2O3                                       *
********************************************************************************

  Formula = Er16O24                                                     

  Number of irreducible atoms/shells =       4


  Total number atoms/shells =      64

  Dimensionality = 3               :  Bulk   


  Symmetry :

  Crystal family                   :  Cubic       
  Crystal class  (Groth - 1921)    :  Cubic Dyakisdodecahedral             

  Space group (centrosymmetric)    :  I A 3           

  Patterson group                  :  I m -3   

  Cartesian lattice vectors (Angstroms) :

       -5.272000    5.272000    5.272000
        5.272000   -5.272000    5.272000
        5.272000    5.272000   -5.272000

  Primitive cell parameters :            Full cell parameters :

  a =   9.1314    alpha = 109.4712       a =  10.5440    alpha =  90.0000
  b =   9.1314    beta  = 109.4712       b =  10.5440    beta  =  90.0000
  c =   9.1314    gamma = 109.4712       c =  10.5440    gamma =  90.0000

  Initial volumes (Angstroms**3):

  Primitive cell =         586.119535    Full cell =        1172.239069

  Temperature of configuration =   0.00     K 

  Pressure of configuration =         0.000 GPa 

  Fractional coordinates of asymmetric unit :

--------------------------------------------------------------------------------
   No.  Atomic       x           y          z         Charge      Occupancy
        Label      (Frac)      (Frac)     (Frac)        (e)         (Frac)  
--------------------------------------------------------------------------------
      1 Er1   c    0.250000    0.250000    0.250000     3.00000    1.000000    
      2 Er2   c    0.967000 *  0.000000    0.250000     3.00000    1.000000    
      3 O     c    0.391100 *  0.151200 *  0.379900 *   0.24000    1.000000    
      4 O     s    0.391100 *  0.151200 *  0.379900 *  -2.24000    1.000000    
--------------------------------------------------------------------------------


  Constraints : 

--------------------------------------------------------------------------------
  Constraint no.      Unconstrained     Constrained    Coefficient    Offset
                         Variable         Variable
--------------------------------------------------------------------------------
           1              Strain 1        Strain 2       1.00000      0.0000
           2              Strain 1        Strain 3       1.00000      0.0000
--------------------------------------------------------------------------------


  Distance calculation :


  Cutoff for distances  =      5.000000 Angstroms

--------------------------------------------------------------------------------
  Asymmetric unit site  Full lattice sites    No.  Distance      No.  Distance
      No.   At.No.            At.No.                (Angs)             (Angs) 
--------------------------------------------------------------------------------
       1   Er1   core        Er    core         6    3.4905        6    3.9815
                             O     core         6    2.2748        6    4.1571
                                                6    4.3043        6    4.6888
                             O     shell        6    2.2748        6    4.1571
                                                6    4.3043        6    4.6888
--------------------------------------------------------------------------------
       2   Er2   core        Er    core         2    3.4905        4    3.5078
                                                2    3.9815        4    3.9967
                             O     core         2    2.2382        2    2.2490
                                                2    2.3174        2    3.9727
                                                2    4.2000        2    4.3513
                                                2    4.4380        2    4.4731
                                                2    4.4747        2    4.4785
                                                2    4.6937        2    4.9410
                             O     shell        2    2.2382        2    2.2490
                                                2    2.3174        2    3.9727
                                                2    4.2000        2    4.3513
                                                2    4.4380        2    4.4731
                                                2    4.4747        2    4.4785
                                                2    4.6937        2    4.9410
--------------------------------------------------------------------------------
       3   O     core        Er    core         1    2.2382        1    2.2490
                                                1    2.2748        1    2.3174
                                                1    3.9727        1    4.1571
                                                1    4.2000        1    4.3043
                                                1    4.3513        1    4.4380
                                                1    4.4731        1    4.4747
                                                1    4.4785        1    4.6888
                                                1    4.6937        1    4.9410
                             O     core         2    2.8976        2    2.9106
                                                1    3.1008        2    3.4415
                                                2    3.4967        2    3.6686
                                                1    3.9074        1    4.2036
                                                2    4.5179        1    4.5496
                                                2    4.6369        1    4.6749
                                                2    4.8386
                             O     shell        2    2.8976        2    2.9106
                                                1    3.1008        2    3.4415
                                                2    3.4967        2    3.6686
                                                1    3.9074        1    4.2036
                                                2    4.5179        1    4.5496
                                                2    4.6369        1    4.6749
                                                2    4.8386
--------------------------------------------------------------------------------
       4   O     shell       Er    core         1    2.2382        1    2.2490
                                                1    2.2748        1    2.3174
                                                1    3.9727        1    4.1571
                                                1    4.2000        1    4.3043
                                                1    4.3513        1    4.4380
                                                1    4.4731        1    4.4747
                                                1    4.4785        1    4.6888
                                                1    4.6937        1    4.9410
                             O     core         2    2.8976        2    2.9106
                                                1    3.1008        2    3.4415
                                                2    3.4967        2    3.6686
                                                1    3.9074        1    4.2036
                                                2    4.5179        1    4.5496
                                                2    4.6369        1    4.6749
                                                2    4.8386
                             O     shell        2    2.8976        2    2.9106
                                                1    3.1008        2    3.4415
                                                2    3.4967        2    3.6686
                                                1    3.9074        1    4.2036
                                                2    4.5179        1    4.5496
                                                2    4.6369        1    4.6749
                                                2    4.8386
--------------------------------------------------------------------------------


  Brillouin zone sampling points :

--------------------------------------------------------------------------------
  Point number          x          y          z            Weight
--------------------------------------------------------------------------------
        1           0.000000   0.000000   0.000000     1.00000000
--------------------------------------------------------------------------------


********************************************************************************
*  Input for Configuration =   5 : EuFeO3                                      *
********************************************************************************

  Formula = Eu4Fe4O12                                                   

  Number of irreducible atoms/shells =       6


  Total number atoms/shells =      32

  Dimensionality = 3               :  Bulk   


  Symmetry :

  Crystal family                   :  Orthorhombic
  Crystal class  (Groth - 1921)    :  Orthorhombic Bipyramidal             

  Space group (centrosymmetric)    :  P N M A         

  Patterson group                  :  P m m m  

  Cartesian lattice vectors (Angstroms) :

        5.606000    0.000000    0.000000
        0.000000    7.685000    0.000000
        0.000000    0.000000    5.372000

  Cell parameters (Angstroms/Degrees):

  a =       5.6060    alpha =  90.0000
  b =       7.6850    beta  =  90.0000
  c =       5.3720    gamma =  90.0000

  Initial cell volume =         231.437095 Angs**3

  Temperature of configuration =   0.00     K 

  Pressure of configuration =         0.000 GPa 

  Fractional coordinates of asymmetric unit :

--------------------------------------------------------------------------------
   No.  Atomic       x           y          z         Charge      Occupancy
        Label      (Frac)      (Frac)     (Frac)        (e)         (Frac)  
--------------------------------------------------------------------------------
      1 Eu    c    0.439900 *  0.250000    0.014500 *   3.00000    1.000000    
      2 Fe    c    0.000000    0.000000    0.000000     3.00000    1.000000    
      3 O1    c    0.532000 *  0.250000    0.597800 *   0.24000    1.000000    
      4 O2    c    0.199400 *  0.050600 *  0.302300 *   0.24000    1.000000    
      5 O1    s    0.532000 *  0.250000    0.597800 *  -2.24000    1.000000    
      6 O2    s    0.199400 *  0.050600 *  0.302300 *  -2.24000    1.000000    
--------------------------------------------------------------------------------



  Distance calculation :


  Cutoff for distances  =      5.000000 Angstroms

--------------------------------------------------------------------------------
  Asymmetric unit site  Full lattice sites    No.  Distance      No.  Distance
      No.   At.No.            At.No.                (Angs)             (Angs) 
--------------------------------------------------------------------------------
       1   Eu    core        Eu    core         2    3.7761        2    3.9042
                                                2    3.9916
                             Fe    core         2    3.1271        2    3.2568
                                                2    3.3829        2    3.6819
                             O     core         1    2.2973        2    2.3309
                                                1    2.3649        2    2.5605
                                                2    2.6918        1    3.1757
                                                1    3.3737        2    3.5102
                                                2    4.3363        2    4.3735
                                                2    4.5332        2    4.5910
                                                2    4.6865        2    4.7819
                                                2    4.7849        2    4.8701
                                                2    4.8713        2    4.8843
                             O     shell        1    2.2973        2    2.3309
                                                1    2.3649        2    2.5605
                                                2    2.6918        1    3.1757
                                                1    3.3737        2    3.5102
                                                2    4.3363        2    4.3735
                                                2    4.5332        2    4.5910
                                                2    4.6865        2    4.7819
                                                2    4.7849        2    4.8701
                                                2    4.8713        2    4.8843
--------------------------------------------------------------------------------
       2   Fe    core        Eu    core         2    3.1271        2    3.2568
                                                2    3.3829        2    3.6819
                             Fe    core         2    3.8425        4    3.8822
                             O     core         2    1.9999        2    2.0095
                                                2    2.0295        2    3.9042
                                                2    3.9305        2    3.9767
                                                2    3.9869        2    4.0807
                                                2    4.1538        2    4.5703
                                                2    4.6440        2    4.6681
                                                2    4.6768        2    4.7853
                                                2    4.7887
                             O     shell        2    1.9999        2    2.0095
                                                2    2.0295        2    3.9042
                                                2    3.9305        2    3.9767
                                                2    3.9869        2    4.0807
                                                2    4.1538        2    4.5703
                                                2    4.6440        2    4.6681
                                                2    4.6768        2    4.7853
                                                2    4.7887
--------------------------------------------------------------------------------
       3   O1    core        Eu    core         1    2.2973        1    2.3649
                                                1    3.1757        1    3.3737
                                                2    4.3735        2    4.6865
                                                2    4.8713
                             Fe    core         2    1.9999        2    3.9042
                                                2    4.1538        2    4.5703
                                                2    4.7853
                             O     core         2    2.8015        2    2.8093
                                                2    2.8681        2    2.8887
                                                2    3.2451        2    3.6898
                                                2    3.9997        2    4.3436
                                                2    4.4886        2    4.6712
                                                2    4.7367
                             O     shell        2    2.8015        2    2.8093
                                                2    2.8681        2    2.8887
                                                2    3.2451        2    3.6898
                                                2    3.9997        2    4.3436
                                                2    4.4886        2    4.6712
                                                2    4.7367
--------------------------------------------------------------------------------
       4   O2    core        Eu    core         1    2.3309        1    2.5605
                                                1    2.6918        1    3.5102
                                                1    4.3363        1    4.5332
                                                1    4.5910        1    4.7819
                                                1    4.7849        1    4.8701
                                                1    4.8843
                             Fe    core         1    2.0095        1    2.0295
                                                1    3.9305        1    3.9767
                                                1    3.9869        1    4.0807
                                                1    4.6440        1    4.6681
                                                1    4.6768        1    4.7887
                             O     core         1    2.8015        1    2.8093
                                                2    2.8533        2    2.8588
                                                1    2.8681        1    2.8887
                                                1    3.0648        1    3.1804
                                                1    3.6898        1    4.0190
                                                1    4.0590        2    4.1911
                                                1    4.3436        1    4.4886
                                                1    4.6202        4    4.7224
                                                1    4.7367        1    4.7448
                                                2    4.9269
                             O     shell        1    2.8015        1    2.8093
                                                2    2.8533        2    2.8588
                                                1    2.8681        1    2.8887
                                                1    3.0648        1    3.1804
                                                1    3.6898        1    4.0190
                                                1    4.0590        2    4.1911
                                                1    4.3436        1    4.4886
                                                1    4.6202        4    4.7224
                                                1    4.7367        1    4.7448
                                                2    4.9269
--------------------------------------------------------------------------------
       5   O1    shell       Eu    core         1    2.2973        1    2.3649
                                                1    3.1757        1    3.3737
                                                2    4.3735        2    4.6865
                                                2    4.8713
                             Fe    core         2    1.9999        2    3.9042
                                                2    4.1538        2    4.5703
                                                2    4.7853
                             O     core         2    2.8015        2    2.8093
                                                2    2.8681        2    2.8887
                                                2    3.2451        2    3.6898
                                                2    3.9997        2    4.3436
                                                2    4.4886        2    4.6712
                                                2    4.7367
                             O     shell        2    2.8015        2    2.8093
                                                2    2.8681        2    2.8887
                                                2    3.2451        2    3.6898
                                                2    3.9997        2    4.3436
                                                2    4.4886        2    4.6712
                                                2    4.7367
--------------------------------------------------------------------------------
       6   O2    shell       Eu    core         1    2.3309        1    2.5605
                                                1    2.6918        1    3.5102
                                                1    4.3363        1    4.5332
                                                1    4.5910        1    4.7819
                                                1    4.7849        1    4.8701
                                                1    4.8843
                             Fe    core         1    2.0095        1    2.0295
                                                1    3.9305        1    3.9767
                                                1    3.9869        1    4.0807
                                                1    4.6440        1    4.6681
                                                1    4.6768        1    4.7887
                             O     core         1    2.8015        1    2.8093
                                                2    2.8533        2    2.8588
                                                1    2.8681        1    2.8887
                                                1    3.0648        1    3.1804
                                                1    3.6898        1    4.0190
                                                1    4.0590        2    4.1911
                                                1    4.3436        1    4.4886
                                                1    4.6202        4    4.7224
                                                1    4.7367        1    4.7448
                                                2    4.9269
                             O     shell        1    2.8015        1    2.8093
                                                2    2.8533        2    2.8588
                                                1    2.8681        1    2.8887
                                                1    3.0648        1    3.1804
                                                1    3.6898        1    4.0190
                                                1    4.0590        2    4.1911
                                                1    4.3436        1    4.4886
                                                1    4.6202        4    4.7224
                                                1    4.7367        1    4.7448
                                                2    4.9269
--------------------------------------------------------------------------------


  Brillouin zone sampling points :

--------------------------------------------------------------------------------
  Point number          x          y          z            Weight
--------------------------------------------------------------------------------
        1           0.000000   0.000000   0.000000     1.00000000
--------------------------------------------------------------------------------


********************************************************************************
*  Input for Configuration =   6 : Eu2O3                                       *
********************************************************************************

  Formula = Eu16O24                                                     

  Number of irreducible atoms/shells =       4


  Total number atoms/shells =      64

  Dimensionality = 3               :  Bulk   


  Symmetry :

  Crystal family                   :  Cubic       
  Crystal class  (Groth - 1921)    :  Cubic Dyakisdodecahedral             

  Space group (centrosymmetric)    :  I A 3           

  Patterson group                  :  I m -3   

  Cartesian lattice vectors (Angstroms) :

       -5.434150    5.434150    5.434150
        5.434150   -5.434150    5.434150
        5.434150    5.434150   -5.434150

  Primitive cell parameters :            Full cell parameters :

  a =   9.4122    alpha = 109.4712       a =  10.8683    alpha =  90.0000
  b =   9.4122    beta  = 109.4712       b =  10.8683    beta  =  90.0000
  c =   9.4122    gamma = 109.4712       c =  10.8683    gamma =  90.0000

  Initial volumes (Angstroms**3):

  Primitive cell =         641.881499    Full cell =        1283.762997

  Temperature of configuration =   0.00     K 

  Pressure of configuration =         0.000 GPa 

  Fractional coordinates of asymmetric unit :

--------------------------------------------------------------------------------
   No.  Atomic       x           y          z         Charge      Occupancy
        Label      (Frac)      (Frac)     (Frac)        (e)         (Frac)  
--------------------------------------------------------------------------------
      1 Eu1   c    0.000000    0.000000    0.000000     3.00000    1.000000    
      2 Eu2   c    0.280600 *  0.000000    0.250000     3.00000    1.000000    
      3 O1    c    0.096000 *  0.355900 *  0.130100 *   0.24000    1.000000    
      4 O1    s    0.096000 *  0.355900 *  0.130100 *  -2.24000    1.000000    
--------------------------------------------------------------------------------


  Constraints : 

--------------------------------------------------------------------------------
  Constraint no.      Unconstrained     Constrained    Coefficient    Offset
                         Variable         Variable
--------------------------------------------------------------------------------
           1              Strain 1        Strain 2       1.00000      0.0000
           2              Strain 1        Strain 3       1.00000      0.0000
--------------------------------------------------------------------------------


  Distance calculation :


  Cutoff for distances  =      5.000000 Angstroms

--------------------------------------------------------------------------------
  Asymmetric unit site  Full lattice sites    No.  Distance      No.  Distance
      No.   At.No.            At.No.                (Angs)             (Angs) 
--------------------------------------------------------------------------------
       1   Eu1   core        Eu    core         6    3.6150        6    4.0845
                             O     core         6    2.3539        6    4.2485
                                                6    4.4388        6    4.8715
                             O     shell        6    2.3539        6    4.2485
                                                6    4.4388        6    4.8715
--------------------------------------------------------------------------------
       2   Eu2   core        Eu    core         2    3.6150        4    3.6303
                                                2    4.0845        4    4.0980
                             O     core         2    2.2558        2    2.3389
                                                2    2.4392        2    4.1039
                                                2    4.2826        2    4.5140
                                                2    4.5481        2    4.5720
                                                2    4.6004        2    4.6417
                                                2    4.8522
                             O     shell        2    2.2558        2    2.3389
                                                2    2.4392        2    4.1039
                                                2    4.2826        2    4.5140
                                                2    4.5481        2    4.5720
                                                2    4.6004        2    4.6417
                                                2    4.8522
--------------------------------------------------------------------------------
       3   O1    core        Eu    core         1    2.2558        1    2.3389
                                                1    2.3539        1    2.4392
                                                1    4.1039        1    4.2485
                                                1    4.2826        1    4.4388
                                                1    4.5140        1    4.5481
                                                1    4.5720        1    4.6004
                                                1    4.6417        1    4.8522
                                                1    4.8715
                             O     core         2    3.0262        2    3.0482
                                                1    3.1070        2    3.5120
                                                2    3.5876        2    3.7601
                                                1    4.0747        1    4.3821
                                                2    4.6576        1    4.7077
                                                2    4.7852        1    4.8266
                                                2    4.9277
                             O     shell        2    3.0262        2    3.0482
                                                1    3.1070        2    3.5120
                                                2    3.5876        2    3.7601
                                                1    4.0747        1    4.3821
                                                2    4.6576        1    4.7077
                                                2    4.7852        1    4.8266
                                                2    4.9277
--------------------------------------------------------------------------------
       4   O1    shell       Eu    core         1    2.2558        1    2.3389
                                                1    2.3539        1    2.4392
                                                1    4.1039        1    4.2485
                                                1    4.2826        1    4.4388
                                                1    4.5140        1    4.5481
                                                1    4.5720        1    4.6004
                                                1    4.6417        1    4.8522
                                                1    4.8715
                             O     core         2    3.0262        2    3.0482
                                                1    3.1070        2    3.5120
                                                2    3.5876        2    3.7601
                                                1    4.0747        1    4.3821
                                                2    4.6576        1    4.7077
                                                2    4.7852        1    4.8266
                                                2    4.9277
                             O     shell        2    3.0262        2    3.0482
                                                1    3.1070        2    3.5120
                                                2    3.5876        2    3.7601
                                                1    4.0747        1    4.3821
                                                2    4.6576        1    4.7077
                                                2    4.7852        1    4.8266
                                                2    4.9277
--------------------------------------------------------------------------------


  Brillouin zone sampling points :

--------------------------------------------------------------------------------
  Point number          x          y          z            Weight
--------------------------------------------------------------------------------
        1           0.000000   0.000000   0.000000     1.00000000
--------------------------------------------------------------------------------


********************************************************************************
*  Input for Configuration =   7 : HoFeO3                                      *
********************************************************************************

  Formula = Ho4Fe4O12                                                   

  Number of irreducible atoms/shells =       6


  Total number atoms/shells =      32

  Dimensionality = 3               :  Bulk   


  Symmetry :

  Crystal family                   :  Orthorhombic
  Crystal class  (Groth - 1921)    :  Orthorhombic Bipyramidal             

  Space group (centrosymmetric)    :  P N M A         

  Patterson group                  :  P m m m  

  Cartesian lattice vectors (Angstroms) :

        5.591000    0.000000    0.000000
        0.000000    7.602000    0.000000
        0.000000    0.000000    5.278000

  Cell parameters (Angstroms/Degrees):

  a =       5.5910    alpha =  90.0000
  b =       7.6020    beta  =  90.0000
  c =       5.2780    gamma =  90.0000

  Initial cell volume =         224.329683 Angs**3

  Temperature of configuration =   0.00     K 

  Pressure of configuration =         0.000 GPa 

  Fractional coordinates of asymmetric unit :

--------------------------------------------------------------------------------
   No.  Atomic       x           y          z         Charge      Occupancy
        Label      (Frac)      (Frac)     (Frac)        (e)         (Frac)  
--------------------------------------------------------------------------------
      1 Ho    c    0.470900 *  0.250000    0.006100 *   3.00000    1.000000    
      2 Fe    c    0.000000    0.000000    0.000000     3.00000    1.000000    
      3 O1    c    0.511000 *  0.250000    0.569000 *   0.24000    1.000000    
      4 O2    c    0.219000 *  0.039000 *  0.280000 *   0.24000    1.000000    
      5 O1    s    0.511000 *  0.250000    0.569000 *  -2.24000    1.000000    
      6 O2    s    0.219000 *  0.039000 *  0.280000 *  -2.24000    1.000000    
--------------------------------------------------------------------------------



  Distance calculation :


  Cutoff for distances  =      5.000000 Angstroms

--------------------------------------------------------------------------------
  Asymmetric unit site  Full lattice sites    No.  Distance      No.  Distance
      No.   At.No.            At.No.                (Angs)             (Angs) 
--------------------------------------------------------------------------------
       1   Ho    core        Ho    core         2    3.8005        2    3.8154
                                                2    3.8888
                             Fe    core         2    3.2301        2    3.2472
                                                2    3.2823        2    3.5162
                             O     core         1    2.3179        2    2.4024
                                                2    2.5780        1    2.6017
                                                2    2.7163        1    2.9794
                                                1    3.0456        2    3.1801
                                                2    4.3867        2    4.4144
                                                2    4.6390        2    4.6596
                                                2    4.6709        2    4.6888
                                                2    4.6936        2    4.7071
                                                2    4.7580        2    4.7905
                                                2    4.8653
                             O     shell        1    2.3179        2    2.4024
                                                2    2.5780        1    2.6017
                                                2    2.7163        1    2.9794
                                                1    3.0456        2    3.1801
                                                2    4.3867        2    4.4144
                                                2    4.6390        2    4.6596
                                                2    4.6709        2    4.6888
                                                2    4.6936        2    4.7071
                                                2    4.7580        2    4.7905
                                                2    4.8653
--------------------------------------------------------------------------------
       2   Fe    core        Ho    core         2    3.2301        2    3.2472
                                                2    3.2823        2    3.5162
                             Fe    core         2    3.8010        4    3.8444
                             O     core         2    1.9361        2    1.9419
                                                2    1.9760        2    3.9956
                                                2    4.0035        2    4.0123
                                                2    4.0325        2    4.1169
                                                2    4.1948        2    4.4164
                                                2    4.4839        2    4.5247
                                                2    4.5394        2    4.5600
                                                2    4.6194
                             O     shell        2    1.9361        2    1.9419
                                                2    1.9760        2    3.9956
                                                2    4.0035        2    4.0123
                                                2    4.0325        2    4.1169
                                                2    4.1948        2    4.4164
                                                2    4.4839        2    4.5247
                                                2    4.5394        2    4.5600
                                                2    4.6194
--------------------------------------------------------------------------------
       3   O1    core        Ho    core         1    2.3179        1    2.6017
                                                1    2.9794        1    3.0456
                                                2    4.4144        2    4.6709
                                                2    4.7905        2    4.8653
                             Fe    core         2    1.9361        2    4.0325
                                                2    4.1169        2    4.4839
                                                2    4.5600
                             O     core         2    2.7052        2    2.7504
                                                2    2.7786        2    2.7822
                                                2    3.3861        2    3.8721
                                                2    3.9663        2    4.3765
                                                2    4.3955        2    4.5353
                                                2    4.7032        2    4.8808
                                                2    4.9599
                             O     shell        2    2.7052        2    2.7504
                                                2    2.7786        2    2.7822
                                                2    3.3861        2    3.8721
                                                2    3.9663        2    4.3765
                                                2    4.3955        2    4.5353
                                                2    4.7032        2    4.8808
                                                2    4.9599
--------------------------------------------------------------------------------
       4   O2    core        Ho    core         1    2.4024        1    2.5780
                                                1    2.7163        1    3.1801
                                                1    4.3867        1    4.6390
                                                1    4.6596        1    4.6888
                                                1    4.6936        1    4.7071
                                                1    4.7580
                             Fe    core         1    1.9419        1    1.9760
                                                1    3.9956        1    4.0035
                                                1    4.0123        1    4.1948
                                                1    4.4164        1    4.5247
                                                1    4.5394        1    4.6194
                             O     core         1    2.7052        2    2.7269
                                                1    2.7504        1    2.7786
                                                1    2.7822        2    2.8134
                                                1    3.2080        1    3.4266
                                                1    3.8839        1    3.9519
                                                1    3.9663        2    4.2669
                                                1    4.3544        1    4.3940
                                                1    4.3955        1    4.5353
                                                4    4.6403        1    4.7032
                                                1    4.8808        1    4.9599
[...]
    alpha         90.000000     90.000000     0.000000    Degrees      0.00
    beta          90.000000     90.000000     0.000000    Degrees      0.00
    gamma        120.000000    120.000000     0.000000    Degrees      0.00
      1 x          0.333333      0.333333     0.000000    Fractional   0.00
      1 y          0.666667      0.666667     0.000000    Fractional   0.00
      1 z          0.249800      0.249093     0.000707    Fractional   0.28
      2 x          0.000000      0.000000     0.000000    Fractional   0.00
      2 y          0.000000      0.000000     0.000000    Fractional   0.00
      2 z          0.000000      0.000000     0.000000    Fractional   0.00
      3 x          0.333333      0.333333     0.000000    Fractional   0.00
      3 y          0.666667      0.666667     0.000000    Fractional   0.00
      3 z          0.646400      0.661177     0.014777    Fractional   2.29
      4 x          0.000000      0.000000     0.000000    Fractional   0.00
      4 y          0.000000      0.000000     0.000000    Fractional   0.00
      4 z          0.000000      0.000000     0.000000    Fractional   0.00
      5 x          0.333333      0.333333     0.000000    Fractional   0.00
      5 y          0.666667      0.666667     0.000000    Fractional   0.00
      5 z          0.646400      0.661897     0.015497    Fractional   2.40
--------------------------------------------------------------------------------


  Distance calculation :


  Cutoff for distances  =      5.000000 Angstroms

--------------------------------------------------------------------------------
  Asymmetric unit site  Full lattice sites    No.  Distance      No.  Distance
      No.   At.No.            At.No.                (Angs)             (Angs) 
--------------------------------------------------------------------------------
       1   Tb    core        Tb    core         3    3.6227        3    3.6401
                                                6    3.6571
                             O     core         3    2.1770        1    2.4350
                                                3    2.5738        1    3.4740
                                                3    4.2560        6    4.3936
                                                3    4.4720        3    4.9139
                             O     shell        3    2.1759        1    2.4393
                                                3    2.5738        1    3.4698
                                                3    4.2554        6    4.3959
                                                3    4.4720        3    4.9139
--------------------------------------------------------------------------------
       2   O1    core        Tb    core         6    2.5738        6    4.4720
                                                6    4.9139
                             O     core         6    2.9097        6    3.6571
                                                6    4.4410        6    4.6734
                             O     shell        6    2.9068        6    3.6571
                                                6    4.4447        6    4.6716
--------------------------------------------------------------------------------
       3   O1    core        Tb    core         3    2.1770        1    2.4350
                                                1    3.4740        3    4.2560
                                                6    4.3936
                             O     core         3    2.8436        3    2.9097
                                                6    3.6571        3    4.4410
                                                3    4.5268        3    4.6325
                                                3    4.6734
                             O     shell        3    2.8465        3    2.9097
                                                6    3.6571        3    4.4410
                                                3    4.5230        3    4.6343
                                                3    4.6734
--------------------------------------------------------------------------------
       4   O1    shell       Tb    core         6    2.5738        6    4.4720
                                                6    4.9139
                             O     core         6    2.9097        6    3.6571
                                                6    4.4410        6    4.6734
                             O     shell        6    2.9068        6    3.6571
                                                6    4.4447        6    4.6716
--------------------------------------------------------------------------------
       5   O1    shell       Tb    core         3    2.1759        1    2.4393
                                                1    3.4698        3    4.2554
                                                6    4.3959
                             O     core         3    2.8465        3    2.9068
                                                6    3.6571        3    4.4447
                                                3    4.5230        3    4.6343
                                                3    4.6716
                             O     shell        3    2.8493        3    2.9068
                                                6    3.6571        3    4.4447
                                                3    4.5193        3    4.6360
                                                3    4.6716
--------------------------------------------------------------------------------



  Born effective charge tensors : 

-------------------------------------------------------------------------------
  Atom             x           y             z
-------------------------------------------------------------------------------
    1 Tb    x       2.7348     -0.0000      0.0000
            y      -0.0000      2.7348      0.0000
            z       0.0000      0.0000      2.9663
-------------------------------------------------------------------------------
    2 O1    x      -2.0356      0.0000     -0.0000
            y       0.0000     -2.0356      0.0000
            z      -0.0000      0.0000     -2.0127
-------------------------------------------------------------------------------
    3 O1    x      -1.7170      0.0000     -0.0000
            y       0.0000     -1.7170     -0.0000
            z      -0.0000     -0.0000     -1.9600
-------------------------------------------------------------------------------




  Elastic Constant Matrix: (Units=GPa)

-------------------------------------------------------------------------------
  Indices      1         2         3         4         5         6    
-------------------------------------------------------------------------------
       1    326.3278  210.0495  112.7929   82.8084   -0.0000   -0.0000
       2    210.0495  326.3278  112.7929  -82.8084    0.0000    0.0000
       3    112.7929  112.7929  213.8453    0.0000    0.0000   -0.0000
       4     82.8084  -82.8084    0.0000  100.3287   -0.0000   -0.0000
       5     -0.0000    0.0000    0.0000   -0.0000  100.3287   82.8084
       6     -0.0000    0.0000   -0.0000   -0.0000   82.8084   58.1391
-------------------------------------------------------------------------------


  Elastic Compliance Matrix: (Units=1/GPa)

-------------------------------------------------------------------------------
  Indices      1         2         3         4         5         6    
-------------------------------------------------------------------------------
       1   -0.023291  0.025687 -0.001264  0.040426  0.000000 -0.000000
       2    0.025687 -0.023291 -0.001264 -0.040426 -0.000000  0.000000
       3   -0.001264 -0.001264  0.006009  0.000000  0.000000 -0.000000
       4    0.040426 -0.040426  0.000000 -0.056765 -0.000000  0.000000
       5    0.000000 -0.000000  0.000000 -0.000000 -0.056765  0.080851
       6   -0.000000  0.000000 -0.000000  0.000000  0.080851 -0.097958
-------------------------------------------------------------------------------

  Mechanical properties :

-------------------------------------------------------------------------------
  Convention :                    Reuss         Voigt         Hill
-------------------------------------------------------------------------------
  Bulk  Modulus (GPa)     =     174.02598     193.08571     183.55585
  Shear Modulus (GPa)     =     -16.86535      80.48367      31.80916
-------------------------------------------------------------------------------
  Velocity S-wave (km/s)  =      -1.37838       3.01110       1.89298
  Velocity P-wave (km/s)  =       4.13174       5.81726       5.04538
-------------------------------------------------------------------------------
  Compressibility (1/GPa) =    0.00574627
-------------------------------------------------------------------------------
  Stress axis :                     x             y             z
-------------------------------------------------------------------------------
  Youngs Moduli (GPa)     =     -42.93417     -42.93417     166.40766
-------------------------------------------------------------------------------
  Poissons Ratio (x)      =                     1.10286       0.21029
  Poissons Ratio (y)      =       1.10286                     0.21029
  Poissons Ratio (z)      =      -0.05426      -0.05426
-------------------------------------------------------------------------------


  Piezoelectric Strain Matrix: (Units=C/m**2)

-------------------------------------------------------------------------------
  Indices      1         2         3         4         5         6    
-------------------------------------------------------------------------------
       x    -0.00000  -0.00000  -0.00000  -0.00000  -0.00000   0.00000
       y     0.00000  -0.00000   0.00000  -0.00000  -0.00000  -0.00000
       z    -0.00000   0.00000  -0.00000   0.00000  -0.00000   0.00000
-------------------------------------------------------------------------------


  Piezoelectric Stress Matrix: (Units=10**-11 C/N)

-------------------------------------------------------------------------------
  Indices      1         2         3         4         5         6    
-------------------------------------------------------------------------------
       x     0.00000  -0.00000  -0.00000  -0.00000   0.00000  -0.00000
       y    -0.00000   0.00000   0.00000   0.00000  -0.00000   0.00000
       z     0.00000  -0.00000  -0.00000  -0.00000   0.00000  -0.00000
-------------------------------------------------------------------------------


  Static dielectric constant tensor : 

-------------------------------------------------------------------------------
              x         y         z
-------------------------------------------------------------------------------
       x     9.42889  -0.00000   0.00000
       y    -0.00000   9.42889   0.00000
       z     0.00000   0.00000  25.46209
--------------------------------------------------------------------------------

  High frequency dielectric constant tensor : 

-------------------------------------------------------------------------------
              x         y         z
-------------------------------------------------------------------------------
       x     1.57285  -0.00000   0.00000
       y    -0.00000   1.57285   0.00000
       z     0.00000   0.00000   1.61896
-------------------------------------------------------------------------------

  Static refractive indices : 

-------------------------------------------------------------------------------
    1 =    3.07065      2 =    3.07065      3 =    5.04600
-------------------------------------------------------------------------------

  High frequency refractive indices : 

-------------------------------------------------------------------------------
    1 =    1.25413      2 =    1.25413      3 =    1.27238
-------------------------------------------------------------------------------


  Phonon Calculation : 

  Number of k points for this configuration =        1

--------------------------------------------------------------------------------
  K point     27 =   0.000000  0.000000  0.000000  Weight =    1.000
--------------------------------------------------------------------------------

  Frequencies (cm-1) [NB: Negative implies an imaginary mode]:

    0.00    0.00    0.00  117.96  117.96  159.53  193.86  204.73  204.73
  453.20  453.20  481.15  481.15  521.55  542.60


--------------------------------------------------------------------------------
  Phonon properties (per mole of unit cells): Temperature =      0.000 K
--------------------------------------------------------------------------------
  Zero point energy            =        0.243730 eV
--------------------------------------------------------------------------------

  Phonon density of states : 

--------------------------------------------------------------------------------
 Frequency (cm-1) Density of States                                             
--------------------------------------------------------------------------------
    0.00000 |************************************************************  0.200
    8.47809 |                                                              0.000
   16.95618 |                                                              0.000
   25.43428 |                                                              0.000
   33.91237 |                                                              0.000
   42.39046 |                                                              0.000
   50.86855 |                                                              0.000
   59.34664 |                                                              0.000
   67.82473 |                                                              0.000
   76.30283 |                                                              0.000
   84.78092 |                                                              0.000
   93.25901 |                                                              0.000
  101.73710 |                                                              0.000
  110.21519 |****************************************                      0.133
  118.69328 |                                                              0.000
  127.17138 |                                                              0.000
  135.64947 |                                                              0.000
  144.12756 |                                                              0.000
  152.60565 |********************                                          0.067
  161.08374 |                                                              0.000
  169.56183 |                                                              0.000
  178.03993 |                                                              0.000
  186.51802 |********************                                          0.067
  194.99611 |                                                              0.000
  203.47420 |****************************************                      0.133
  211.95229 |                                                              0.000
  220.43039 |                                                              0.000
  228.90848 |                                                              0.000
  237.38657 |                                                              0.000
  245.86466 |                                                              0.000
  254.34275 |                                                              0.000
  262.82084 |                                                              0.000
  271.29894 |                                                              0.000
  279.77703 |                                                              0.000
  288.25512 |                                                              0.000
  296.73321 |                                                              0.000
  305.21130 |                                                              0.000
  313.68939 |                                                              0.000
  322.16749 |                                                              0.000
  330.64558 |                                                              0.000
  339.12367 |                                                              0.000
  347.60176 |                                                              0.000
  356.07985 |                                                              0.000
  364.55794 |                                                              0.000
  373.03604 |                                                              0.000
  381.51413 |                                                              0.000
  389.99222 |                                                              0.000
  398.47031 |                                                              0.000
  406.94840 |                                                              0.000
  415.42650 |                                                              0.000
  423.90459 |                                                              0.000
  432.38268 |                                                              0.000
  440.86077 |                                                              0.000
  449.33886 |****************************************                      0.133
  457.81695 |                                                              0.000
  466.29505 |                                                              0.000
  474.77314 |****************************************                      0.133
  483.25123 |                                                              0.000
  491.72932 |                                                              0.000
  500.20741 |                                                              0.000
  508.68550 |                                                              0.000
  517.16360 |********************                                          0.067
  525.64169 |                                                              0.000
  534.11978 |********************                                          0.067
--------------------------------------------------------------------------------



  Time to end of optimisation =    2480.2500 seconds


  Peak dynamic memory used =       3.13 MB 


  Timing analysis for GULP :

--------------------------------------------------------------------------------
  Task / Subroutine                                          Time (Seconds)
--------------------------------------------------------------------------------
  Calculation of reciprocal space energy and derivatives         84.4062
  Calculation of reciprocal space energy using symmetry         176.5156
  Calculation of real space energy and derivatives              752.0000
  Calculation of real space energy using symmetry              1441.0781
  Calculation of phonons                                          0.9219
  Calculation and manipulation of Hessian matrix                  0.4531
  Calculation of matrix inversion                                 0.4375
  Disk read/write operations to scratch files                     0.0156
  Sum of squares for fitting                                   2399.4531
  Symmetry generation of equivalent positions                     6.7031
  Global summation overhead                                       1.3125
--------------------------------------------------------------------------------
  Total CPU time                                               2480.2500
--------------------------------------------------------------------------------



  **** GULP has completed with 1 warning - beware! ****

  Job Finished at 19:19.23  7th December   2020                               

