********************************************************************************
*                       GENERAL UTILITY LATTICE PROGRAM                        *
*                                 Julian Gale                                  *
*                       Curtin Institute for Computation                       *
*                    School of Molecular and Life Sciences                     *
*                    Curtin University, Western Australia                      *
********************************************************************************
* Version = 5.2.0 * Last modified =  11th May 2020                             *
********************************************************************************
*  optimise     - perform optimisation run                                     *
*  conp         - constant pressure calculation                                *
*  property     - calculate properties for final geometry                      *
*  phonon       - calculate phonons for final geometry                         *
*  compare      - compare initial and final structures                         *
********************************************************************************

  Job Started  at 20:19.04 25th February   2021                               

  Number of CPUs =     1


  Total number of configurations input =      1

********************************************************************************
*  Input for Configuration =   1 : ex09                                        *
********************************************************************************

  Formula = MgO                                                         

  Number of irreducible atoms/shells =       3


  Total number atoms/shells =       3

  Dimensionality = 3               :  Bulk   


  Symmetry :

  Crystal family                   :  Cubic       
  Crystal class  (Groth - 1921)    :  Cubic Hexakisoctahedral              

  Space group (centrosymmetric)    :  F M 3 M         

  Patterson group                  :  F m -3 m 

  Cartesian lattice vectors (Angstroms) :

        0.000000    2.106000    2.106000
        2.106000    0.000000    2.106000
        2.106000    2.106000    0.000000

  Primitive cell parameters :            Full cell parameters :

  a =   2.9783    alpha =  60.0000       a =   4.2120    alpha =  90.0000
  b =   2.9783    beta  =  60.0000       b =   4.2120    beta  =  90.0000
  c =   2.9783    gamma =  60.0000       c =   4.2120    gamma =  90.0000

  Initial volumes (Angstroms**3):

  Primitive cell =          18.681214    Full cell =          74.724856

  Temperature of configuration =   0.00     K 

  Pressure of configuration =         0.000 GPa 

  Fractional coordinates of asymmetric unit :

--------------------------------------------------------------------------------
   No.  Atomic       x           y          z         Charge      Occupancy
        Label      (Frac)      (Frac)     (Frac)        (e)         (Frac)  
--------------------------------------------------------------------------------
      1 Mg    c    0.000000    0.000000    0.000000     2.00000    1.000000    
      2 O     c    0.500000    0.500000    0.500000     0.80000    1.000000    
      3 O     bs   0.500000    0.500000    0.500000    -2.80000    1.000000    
--------------------------------------------------------------------------------


  Constraints : 

--------------------------------------------------------------------------------
  Constraint no.      Unconstrained     Constrained    Coefficient    Offset
                         Variable         Variable
--------------------------------------------------------------------------------
           1              Strain 1        Strain 2       1.00000      0.0000
           2              Strain 1        Strain 3       1.00000      0.0000
--------------------------------------------------------------------------------

  Brillouin zone sampling points :

--------------------------------------------------------------------------------
  Point number          x          y          z            Weight
--------------------------------------------------------------------------------
        1           0.000000   0.000000   0.000000     1.00000000
--------------------------------------------------------------------------------


********************************************************************************
*  General input information                                                   *
********************************************************************************

  Species output for all configurations : 

--------------------------------------------------------------------------------
  Species    Type    Atomic    Atomic    Charge       Radii (Angs)     Library
                     Number     Mass       (e)     Cova   Ionic  VDW   Symbol
--------------------------------------------------------------------------------
    Mg       Core       12      24.31   2.000000   1.100  0.000  1.640          
    O        Core        8      16.00   0.800000   0.730  0.000  1.360          
    O        BShell      8       0.00  -2.800000   0.730  1.125  1.360          
--------------------------------------------------------------------------------


  Lattice summation method               =    Ewald          (3-D)
                                         =    Parry          (2-D)
                                         =    Saunders et al (1-D)
  Accuracy factor for lattice sums       =   12.000


  Analytic derivatives to be used

  Time limit = Infinity

  Maximum range for interatomic potentials =    100000.000000 Angstroms

  General interatomic potentials :

--------------------------------------------------------------------------------
Atom  Types   Potential      Parameter       Value         Units   Cutoffs(Ang)
  1     2                                                            Min /  Max 
--------------------------------------------------------------------------------
Mg   c O    s Buckingham    Buckingham A     23.201000    eV        0.000 10.000
                            Buckingham rho  0.37330000    Ang       
                            Buckingham C     0.0000000    eV*Ang^6  
--------------------------------------------------------------------------------
O    c O    s Spring (c-s)  Spring k 2       50.839400    eV*Ang^-2 0.000  0.800
                            Spring k 4       0.0000000    eV*Ang^-4 
--------------------------------------------------------------------------------
O    s O    s BSM           BSM force const  341.40810    eV*Ang^-2 0.000  0.100
                            BSM radius       1.2000000    Ang       
--------------------------------------------------------------------------------
O    s O    s Buckingham    Buckingham A     0.0000000    eV        0.000 10.000
                            Buckingham rho  0.30000000    Ang       
                            Buckingham C     36.000000    eV*Ang^6  
--------------------------------------------------------------------------------

********************************************************************************
*  Output for configuration   1 : ex09                                         *
********************************************************************************


  Components of energy : 

--------------------------------------------------------------------------------
  Interatomic potentials     =          10.89959077 eV    
  Monopole - monopole (real) =          -4.34238722 eV    
  Monopole - monopole (recip)=         -43.45344934 eV    
  Monopole - monopole (total)=         -47.79583656 eV    
--------------------------------------------------------------------------------
  Total lattice energy : 
    Primitive unit cell      =         -36.89624580 eV    
    Non-primitive unit cell  =        -147.58498319 eV    
--------------------------------------------------------------------------------
  Total lattice energy (in kJmol-1): 
    Primitive unit cell      =           -3559.9237 kJ/(mole unit cells)
    Non-primitive unit cell  =          -14239.6948 kJ/(mole unit cells)
--------------------------------------------------------------------------------


  Number of variables =        2

  Maximum number of calculations  =          1000
  Maximum Hessian update interval =            10
  Maximum step size               =   1.000000000
  Maximum parameter tolerance     =   0.000010000
  Maximum function  tolerance     =   0.000010000
  Maximum gradient  tolerance     =   0.001000000
  Maximum gradient  component     =   0.010000000

  Symmetry constrained optimisation

  Symmetry used for second derivatives

  Cell parameters to be optimised using strains

  Newton-Raphson optimiser to be used

  BFGS hessian update to be used

  Lower half triangular hessian to be used

  Start of bulk optimisation :

  Cycle:      0 Energy:       -36.896246  Gnorm:      4.724198  CPU:    0.051
  ** Hessian calculated **
  Cycle:      1 Energy:       -37.130358  Gnorm:      0.474634  CPU:    0.053
  Cycle:      2 Energy:       -37.131353  Gnorm:      0.011871  CPU:    0.056


  **** Optimisation achieved ****


  Final energy =     -37.13135485 eV
  Final Gnorm  =       0.00070637

  Components of energy : 

--------------------------------------------------------------------------------
  Interatomic potentials     =           8.09901986 eV    
  Monopole - monopole (real) =          -4.10930774 eV    
  Monopole - monopole (recip)=         -41.12106697 eV    
  Monopole - monopole (total)=         -45.23037471 eV    
--------------------------------------------------------------------------------
  Total lattice energy : 
    Primitive unit cell      =         -37.13135485 eV    
    Non-primitive unit cell  =        -148.52541939 eV    
--------------------------------------------------------------------------------
  Total lattice energy (in kJmol-1): 
    Primitive unit cell      =           -3582.6081 kJ/(mole unit cells)
    Non-primitive unit cell  =          -14330.4326 kJ/(mole unit cells)
--------------------------------------------------------------------------------

  Final asymmetric unit coordinates :

--------------------------------------------------------------------------------
   No.  Atomic        x           y           z         Radius
        Label       (Frac)      (Frac)      (Frac)       (Angs) 
--------------------------------------------------------------------------------
     1  Mg    c     0.000000    0.000000    0.000000    0.000000
     2  O     c     0.500000    0.500000    0.500000    0.000000
     3  O     bs    0.500000    0.500000    0.500000    1.139313
--------------------------------------------------------------------------------

  Final Cartesian lattice vectors (Angstroms) :

        0.000000    2.225452    2.225452
        2.225452    0.000000    2.225452
        2.225452    2.225452    0.000000


  Final cell parameters and derivatives :

--------------------------------------------------------------------------------
       a            3.147265 Angstrom     dE/de1(xx)    -0.000666 eV/strain
       b            3.147265 Angstrom     dE/de2(yy)     0.000000 eV/strain
       c            3.147265 Angstrom     dE/de3(zz)     0.000000 eV/strain
       alpha       60.000000 Degrees      dE/de4(yz)     0.000000 eV/strain
       beta        60.000000 Degrees      dE/de5(xz)     0.000000 eV/strain
       gamma       60.000000 Degrees      dE/de6(xy)     0.000000 eV/strain
--------------------------------------------------------------------------------

  Primitive cell volume =            22.043713 Angs**3

  Density of cell =      3.036575 g/cm**3

  Non-primitive lattice parameters :

  a    =     4.450904  b   =     4.450904  c    =     4.450904
  alpha=    90.000000  beta=    90.000000  gamma=    90.000000

  Non-primitive cell volume =            88.174851 Angs**3


  Final internal derivatives :

--------------------------------------------------------------------------------
   No.  Atomic          a             b             c           Radius
        Label          (eV)          (eV)          (eV)        (eV/Angs)
--------------------------------------------------------------------------------
      1 Mg    c       0.000000      0.000000      0.000000      0.000000
      2 O     c       0.000000      0.000000      0.000000      0.000000
      3 O     bs      0.000000      0.000000      0.000000      0.001246
--------------------------------------------------------------------------------
  Maximum abs         0.000000      0.000000      0.000000      0.001246
--------------------------------------------------------------------------------

  Comparison of initial and final structures : 

--------------------------------------------------------------------------------
  Parameter   Initial value   Final value   Difference    Units      Percent
--------------------------------------------------------------------------------
    Volume        74.724856     88.174851    13.449995    Angs**3     18.00
    a              4.212000      4.450904     0.238904    Angstroms    5.67
    b              4.212000      4.450904     0.238904    Angstroms    5.67
    c              4.212000      4.450904     0.238904    Angstroms    5.67
    alpha         90.000000     90.000000     0.000000    Degrees      0.00
    beta          90.000000     90.000000     0.000000    Degrees      0.00
    gamma         90.000000     90.000000     0.000000    Degrees      0.00
      1 x          0.000000      0.000000     0.000000    Fractional   0.00
      1 y          0.000000      0.000000     0.000000    Fractional   0.00
      1 z          0.000000      0.000000     0.000000    Fractional   0.00
      2 x          0.500000      0.500000     0.000000    Fractional   0.00
      2 y          0.500000      0.500000     0.000000    Fractional   0.00
      2 z          0.500000      0.500000     0.000000    Fractional   0.00
      3 x          0.500000      0.500000     0.000000    Fractional   0.00
      3 y          0.500000      0.500000     0.000000    Fractional   0.00
      3 z          0.500000      0.500000     0.000000    Fractional   0.00
--------------------------------------------------------------------------------


  Born effective charge tensors : 

-------------------------------------------------------------------------------
  Atom             x           y             z
-------------------------------------------------------------------------------
    1 Mg    x       2.1997     -0.0000      0.0000
            y      -0.0000      2.1997      0.0000
            z       0.0000      0.0000      2.1997
-------------------------------------------------------------------------------
    2 O     x      -2.1997      0.0000     -0.0000
            y       0.0000     -2.1997     -0.0000
            z      -0.0000     -0.0000     -2.1997
-------------------------------------------------------------------------------




  Elastic Constant Matrix: (Units=GPa)

-------------------------------------------------------------------------------
  Indices      1         2         3         4         5         6    
-------------------------------------------------------------------------------
       1    142.3724  105.2551  105.2551   -0.0000   -0.0000   -0.0000
       2    105.2551  142.3724  105.2551   -0.0000   -0.0000   -0.0000
       3    105.2551  105.2551  142.3724    0.0000    0.0000    0.0000
       4     -0.0000   -0.0000    0.0000  137.2573    0.0000   -0.0000
       5     -0.0000   -0.0000    0.0000    0.0000  137.2573   -0.0000
       6     -0.0000   -0.0000    0.0000   -0.0000   -0.0000  137.2573
-------------------------------------------------------------------------------


  Elastic Compliance Matrix: (Units=1/GPa)

-------------------------------------------------------------------------------
  Indices      1         2         3         4         5         6    
-------------------------------------------------------------------------------
       1    0.018906 -0.008036 -0.008036  0.000000  0.000000 -0.000000
       2   -0.008036  0.018906 -0.008036 -0.000000 -0.000000  0.000000
       3   -0.008036 -0.008036  0.018906 -0.000000 -0.000000 -0.000000
       4    0.000000 -0.000000 -0.000000  0.007286 -0.000000  0.000000
       5    0.000000 -0.000000 -0.000000 -0.000000  0.007286  0.000000
       6   -0.000000  0.000000 -0.000000  0.000000  0.000000  0.007286
-------------------------------------------------------------------------------

  Mechanical properties :

-------------------------------------------------------------------------------
  Convention :                    Reuss         Voigt         Hill
-------------------------------------------------------------------------------
  Bulk  Modulus (GPa)     =     117.62753     117.62753     117.62753
  Shear Modulus (GPa)     =      38.57333      89.77781      64.17557
-------------------------------------------------------------------------------
  Velocity S-wave (km/s)  =       3.56411       5.43742       4.59719
  Velocity P-wave (km/s)  =       7.46151       8.84068       8.18021
-------------------------------------------------------------------------------
  Compressibility (1/GPa) =    0.00850141
-------------------------------------------------------------------------------
  Stress axis :                     x             y             z
-------------------------------------------------------------------------------
  Youngs Moduli (GPa)     =      52.89416      52.89416      52.89416
-------------------------------------------------------------------------------
  Poissons Ratio (x)      =                     0.42505       0.42505
  Poissons Ratio (y)      =       0.42505                     0.42505
  Poissons Ratio (z)      =       0.42505       0.42505
-------------------------------------------------------------------------------


  Piezoelectric Strain Matrix: (Units=C/m**2)

-------------------------------------------------------------------------------
  Indices      1         2         3         4         5         6    
-------------------------------------------------------------------------------
       x    -0.00000   0.00000   0.00000   0.00000   0.00000   0.00000
       y     0.00000   0.00000   0.00000   0.00000   0.00000   0.00000
       z     0.00000   0.00000   0.00000   0.00000   0.00000   0.00000
-------------------------------------------------------------------------------


  Piezoelectric Stress Matrix: (Units=10**-11 C/N)

-------------------------------------------------------------------------------
  Indices      1         2         3         4         5         6    
-------------------------------------------------------------------------------
       x    -0.00000   0.00000   0.00000   0.00000   0.00000   0.00000
       y     0.00000  -0.00000   0.00000   0.00000   0.00000   0.00000
       z     0.00000   0.00000  -0.00000   0.00000   0.00000   0.00000
-------------------------------------------------------------------------------


  Static dielectric constant tensor : 

-------------------------------------------------------------------------------
              x         y         z
-------------------------------------------------------------------------------
       x    35.92575   0.00000   0.00000
       y     0.00000  35.92575   0.00000
       z     0.00000   0.00000  35.92575
--------------------------------------------------------------------------------

  High frequency dielectric constant tensor : 

-------------------------------------------------------------------------------
              x         y         z
-------------------------------------------------------------------------------
       x     2.54207  -0.00000   0.00000
       y    -0.00000   2.54207   0.00000
       z     0.00000   0.00000   2.54207
-------------------------------------------------------------------------------

  Static refractive indices : 

-------------------------------------------------------------------------------
    1 =    5.99381      2 =    5.99381      3 =    5.99381
-------------------------------------------------------------------------------

  High frequency refractive indices : 

-------------------------------------------------------------------------------
    1 =    1.59439      2 =    1.59439      3 =    1.59439
-------------------------------------------------------------------------------


  Phonon Calculation : 

  Number of k points for this configuration =        1

--------------------------------------------------------------------------------
  K point      1 =   0.000000  0.000000  0.000000  Weight =    1.000
--------------------------------------------------------------------------------

  Frequencies (cm-1) [NB: Negative implies an imaginary mode]:

   -0.00   -0.00   -0.00  183.11  183.11  183.11


--------------------------------------------------------------------------------
  Phonon properties (per mole of unit cells): Temperature =      0.000 K
--------------------------------------------------------------------------------
  Zero point energy            =        0.034054 eV
--------------------------------------------------------------------------------

  Time to end of optimisation =       0.0675 seconds


  Peak dynamic memory used =       1.81 MB 


  Timing analysis for GULP :

--------------------------------------------------------------------------------
  Task / Subroutine                                          Time (Seconds)
--------------------------------------------------------------------------------
  Calculation of reciprocal space energy and derivatives          0.0003
  Calculation of reciprocal space energy using symmetry           0.0014
  Calculation of real space energy and derivatives                0.0019
  Calculation of real space energy using symmetry                 0.0113
  Calculation of phonons                                          0.0015
  Symmetry generation of equivalent positions                     0.0036
--------------------------------------------------------------------------------
  Total CPU time                                                  0.0675
--------------------------------------------------------------------------------


  Dump file written as example9.grs


  Job Finished at 20:19.04 25th February   2021                               

