********************************************************************************
*                       GENERAL UTILITY LATTICE PROGRAM                        *
*                                 Julian Gale                                  *
*                       Curtin Institute for Computation                       *
*                    School of Molecular and Life Sciences                     *
*                    Curtin University, Western Australia                      *
********************************************************************************
* Version = 5.2.0 * Last modified =  11th May 2020                             *
********************************************************************************
*  optimise     - perform optimisation run                                     *
*  conp         - constant pressure calculation                                *
*  phonon       - calculate phonons for final geometry                         *
*  compare      - compare initial and final structures                         *
********************************************************************************

  Job Started  at 01:20.15 26th February   2021                               

  Number of CPUs =     1


  Total number of configurations input =      1

********************************************************************************
*  Input for Configuration =   1 : ex02                                        *
********************************************************************************

  Formula = Si3O6                                                       

  Number of irreducible atoms/shells =       3


  Total number atoms/shells =      15

  Dimensionality = 3               :  Bulk   


  Symmetry :

  Crystal family                   :  Hexagonal   
  Crystal class  (Groth - 1921)    :  Trigonal Trapezohedral               

  Space group (noncentrosymmetric) :  P 31 2 1        

  Patterson group                  :  P -3 m 1 

  Cartesian lattice vectors (Angstroms) :

        4.914730    0.000000    0.000000
       -2.457365    4.256281    0.000000
        0.000000    0.000000    5.406570

  Cell parameters (Angstroms/Degrees):

  a =       4.9147    alpha =  90.0000
  b =       4.9147    beta  =  90.0000
  c =       5.4066    gamma = 120.0000

  Initial cell volume =         113.097184 Angs**3

  Temperature of configuration =   0.00     K 

  Pressure of configuration =         0.000 GPa 

  Fractional coordinates of asymmetric unit :

--------------------------------------------------------------------------------
   No.  Atomic       x           y          z         Charge      Occupancy
        Label      (Frac)      (Frac)     (Frac)        (e)         (Frac)  
--------------------------------------------------------------------------------
      1 Si    c    0.468200 *  0.000000    0.333333     4.00000    1.000000    
      2 O     c    0.413100 *  0.266100 *  0.213100 *   0.86902    1.000000    
      3 O     s    0.431813 *  0.264902 *  0.204106 *  -2.86902    1.000000    
--------------------------------------------------------------------------------


  Constraints : 

--------------------------------------------------------------------------------
  Constraint no.      Unconstrained     Constrained    Coefficient    Offset
                         Variable         Variable
--------------------------------------------------------------------------------
           1              Strain 1        Strain 2       1.00000      0.0000
--------------------------------------------------------------------------------

  Brillouin zone sampling points :

--------------------------------------------------------------------------------
  Point number          x          y          z            Weight
--------------------------------------------------------------------------------
        1           0.000000   0.000000   0.000000     1.00000000
--------------------------------------------------------------------------------


********************************************************************************
*  General input information                                                   *
********************************************************************************

  Species output for all configurations : 

--------------------------------------------------------------------------------
  Species    Type    Atomic    Atomic    Charge       Radii (Angs)     Library
                     Number     Mass       (e)     Cova   Ionic  VDW   Symbol
--------------------------------------------------------------------------------
    Si       Core       14      28.09   4.000000   1.200  0.000  2.100          
    O        Core        8      16.00   0.869020   0.730  0.000  1.360          
    O        Shell       8       0.00  -2.869020   0.730  0.000  1.360          
--------------------------------------------------------------------------------


  Lattice summation method               =    Ewald          (3-D)
                                         =    Parry          (2-D)
                                         =    Saunders et al (1-D)
  Accuracy factor for lattice sums       =   12.000


  Analytic derivatives to be used

  Time limit = Infinity

  Maximum range for interatomic potentials =    100000.000000 Angstroms

  General interatomic potentials :

--------------------------------------------------------------------------------
Atom  Types   Potential      Parameter       Value         Units   Cutoffs(Ang)
  1     2                                                            Min /  Max 
--------------------------------------------------------------------------------
Si   c O    s General       General A        1278.7927    eV*Ang^m  0.000  8.000
                            General rho     0.32120000    Ang       
                            General C        10.660000    eV*Ang^n  
                            Exponent m         0          None
                            Exponent n         6          None
--------------------------------------------------------------------------------
O    s O    s Buckingham    Buckingham A     23308.352    eV        0.000  8.000
                            Buckingham rho  0.15100000    Ang       
                            Buckingham C     27.880000    eV*Ang^6  
--------------------------------------------------------------------------------
O    c O    s Spring (c-s)  Spring k 2       81.037100    eV*Ang^-2 0.000  0.800
                            Spring k 4       0.0000000    eV*Ang^-4 
--------------------------------------------------------------------------------

  Potentials with energy / gradient boundary corrections : 

--------------------------------------------------------------------------------
    Potential       Atom1   Atom2    Type of correction
--------------------------------------------------------------------------------
    General  0  6   Si    c O     s  Gradient
--------------------------------------------------------------------------------

  General Three-body potentials :

--------------------------------------------------------------------------------
  Atoms       Potential      Parameter       Value         Units   Cutoffs(Ang)
  1 / 2 / 3                                                          Min /  Max 
--------------------------------------------------------------------------------
Si    core    Harmonic      Three-body cnst  2.0972400    eV*rad^-2 0.000  1.800
O     shel                  Three-body angl  109.47000    degrees   0.000  1.800
O     shel                  Three-body k4    0.0000000    eV*rad^-4 0.000  3.200
                            Three-body k3    0.0000000    eV*rad^-3 
--------------------------------------------------------------------------------

********************************************************************************
*  Output for configuration   1 : ex02                                         *
********************************************************************************


  Components of energy : 

--------------------------------------------------------------------------------
  Interatomic potentials     =         105.32792456 eV    
  Three-body potentials      =           0.05967375 eV    
  Monopole - monopole (real) =        -111.26563177 eV    
  Monopole - monopole (recip)=        -379.17637423 eV    
  Monopole - monopole (total)=        -490.44200600 eV    
--------------------------------------------------------------------------------
  Total lattice energy       =        -385.05440770 eV    
--------------------------------------------------------------------------------
  Total lattice energy       =          -37151.8642 kJ/(mole unit cells)
--------------------------------------------------------------------------------


  Number of variables =        9

  Maximum number of calculations  =          1000
  Maximum Hessian update interval =            10
  Maximum step size               =   1.000000000
  Maximum parameter tolerance     =   0.000010000
  Maximum function  tolerance     =   0.000010000
  Maximum gradient  tolerance     =   0.001000000
  Maximum gradient  component     =   0.010000000

  Symmetry constrained optimisation

  Symmetry used for second derivatives

  Cell parameters to be optimised using strains

  Newton-Raphson optimiser to be used

  BFGS hessian update to be used

  Lower half triangular hessian to be used

  Start of bulk optimisation :

  Cycle:      0 Energy:      -385.054408  Gnorm:      3.688734  CPU:    0.068
  ** Hessian calculated **
  Cycle:      1 Energy:      -385.076083  Gnorm:      0.022945  CPU:    0.071


  **** Optimisation achieved ****


  Final energy =    -385.07609363 eV
  Final Gnorm  =       0.00097427

  Components of energy : 

--------------------------------------------------------------------------------
  Interatomic potentials     =         104.64140996 eV    
  Three-body potentials      =           0.05280752 eV    
  Monopole - monopole (real) =        -110.62249943 eV    
  Monopole - monopole (recip)=        -379.14781168 eV    
  Monopole - monopole (total)=        -489.77031111 eV    
--------------------------------------------------------------------------------
  Total lattice energy       =        -385.07609363 eV    
--------------------------------------------------------------------------------
  Total lattice energy       =          -37153.9566 kJ/(mole unit cells)
--------------------------------------------------------------------------------

  Final asymmetric unit coordinates :

--------------------------------------------------------------------------------
   No.  Atomic        x           y           z         Radius
        Label       (Frac)      (Frac)      (Frac)       (Angs) 
--------------------------------------------------------------------------------
     1  Si    c     0.470565    0.000000    0.333333    0.000000
     2  O     c     0.414179    0.266331    0.213128    0.000000
     3  O     s     0.431577    0.265784    0.204295    0.000000
--------------------------------------------------------------------------------

  Final Cartesian lattice vectors (Angstroms) :

        4.910282    0.000000    0.000000
       -2.455141    4.252429    0.000000
        0.000000    0.000000    5.416368


  Final cell parameters and derivatives :

--------------------------------------------------------------------------------
       a            4.910282 Angstrom     dE/de1(xx)    -0.000372 eV/strain
       b            4.910282 Angstrom     dE/de2(yy)     0.000000 eV/strain
       c            5.416368 Angstrom     dE/de3(zz)    -0.000133 eV/strain
       alpha       90.000000 Degrees      dE/de4(yz)     0.000000 eV/strain
       beta        90.000000 Degrees      dE/de5(xz)     0.000000 eV/strain
       gamma      120.000000 Degrees      dE/de6(xy)     0.000000 eV/strain
--------------------------------------------------------------------------------

  Primitive cell volume =           113.097151 Angs**3

  Density of cell =      2.646841 g/cm**3

  Non-primitive cell volume =           113.097151 Angs**3


  Final internal derivatives :

--------------------------------------------------------------------------------
   No.  Atomic          a             b             c           Radius
        Label          (eV)          (eV)          (eV)        (eV/Angs)
--------------------------------------------------------------------------------
      1 Si    c      -0.000400      0.000000      0.000000      0.000000
      2 O     c      -0.004233      0.000996      0.000588      0.000000
      3 O     s       0.007239     -0.001703     -0.001416      0.000000
--------------------------------------------------------------------------------
  Maximum abs         0.007239      0.001703      0.001416      0.000000
--------------------------------------------------------------------------------

  Comparison of initial and final structures : 

--------------------------------------------------------------------------------
  Parameter   Initial value   Final value   Difference    Units      Percent
--------------------------------------------------------------------------------
    Volume       113.097184    113.097151    -0.000033    Angs**3     -0.00
    a              4.914730      4.910282    -0.004448    Angstroms   -0.09
    b              4.914730      4.910282    -0.004448    Angstroms   -0.09
    c              5.406570      5.416368     0.009798    Angstroms    0.18
    alpha         90.000000     90.000000     0.000000    Degrees      0.00
    beta          90.000000     90.000000     0.000000    Degrees      0.00
    gamma        120.000000    120.000000     0.000000    Degrees      0.00
      1 x          0.468200      0.470565     0.002365    Fractional   0.51
      1 y          0.000000      0.000000     0.000000    Fractional   0.00
      1 z          0.333333      0.333333     0.000000    Fractional   0.00
      2 x          0.413100      0.414179     0.001079    Fractional   0.26
      2 y          0.266100      0.266331     0.000231    Fractional   0.09
      2 z          0.213100      0.213128     0.000028    Fractional   0.01
      3 x          0.431813      0.431577     0.000236    Fractional   0.05
      3 y          0.264902      0.265784     0.000882    Fractional   0.33
      3 z          0.204106      0.204295     0.000189    Fractional   0.09
--------------------------------------------------------------------------------


  Born effective charge tensors : 

-------------------------------------------------------------------------------
  Atom             x           y             z
-------------------------------------------------------------------------------
    1 Si    x       3.1829      0.0000      0.0000
            y       0.0000      3.5981      0.2529
            z       0.0000     -0.1551      3.4820
-------------------------------------------------------------------------------
    2 O     x      -1.4377      0.3736     -0.2630
            y       0.3685     -1.9528      0.5297
            z      -0.1957      0.5736     -1.7410
-------------------------------------------------------------------------------




  Elastic Constant Matrix: (Units=GPa)

-------------------------------------------------------------------------------
  Indices      1         2         3         4         5         6    
-------------------------------------------------------------------------------
       1     94.9961   10.4114   15.7037  -16.8286    0.0002   -0.0000
       2     10.4114   94.9961   15.7037   16.8286   -0.0002   -0.0000
       3     15.7037   15.7037  108.6364    0.0000   -0.0000   -0.0000
       4    -16.8286   16.8286    0.0000   49.0956    0.0000   -0.0002
       5      0.0002   -0.0002   -0.0000    0.0000   49.0956  -16.8286
       6     -0.0000   -0.0000   -0.0000   -0.0002  -16.8286   42.2923
-------------------------------------------------------------------------------


  Elastic Compliance Matrix: (Units=1/GPa)

-------------------------------------------------------------------------------
  Indices      1         2         3         4         5         6    
-------------------------------------------------------------------------------
       1    0.011802 -0.001888 -0.001433  0.004692 -0.000000  0.000000
       2   -0.001888  0.011802 -0.001433 -0.004692  0.000000  0.000000
       3   -0.001433 -0.001433  0.009619 -0.000000  0.000000  0.000000
       4    0.004692 -0.004692 -0.000000  0.023585 -0.000000  0.000000
       5   -0.000000  0.000000  0.000000 -0.000000  0.023585  0.009385
       6    0.000000  0.000000  0.000000  0.000000  0.009385  0.027379
-------------------------------------------------------------------------------

  Mechanical properties :

-------------------------------------------------------------------------------
  Convention :                    Reuss         Voigt         Hill
-------------------------------------------------------------------------------
  Bulk  Modulus (GPa)     =      42.16750      42.47401      42.32076
  Shear Modulus (GPa)     =      39.94062      45.21736      42.57899
-------------------------------------------------------------------------------
  Velocity S-wave (km/s)  =       3.88457       4.13322       4.01083
  Velocity P-wave (km/s)  =       6.00426       6.23098       6.11867
-------------------------------------------------------------------------------
  Compressibility (1/GPa) =    0.02371495
-------------------------------------------------------------------------------
  Stress axis :                     x             y             z
-------------------------------------------------------------------------------
  Youngs Moduli (GPa)     =      84.73270      84.73270     103.95730
-------------------------------------------------------------------------------
  Poissons Ratio (x)      =                     0.15996       0.14898
  Poissons Ratio (y)      =       0.15996                     0.14898
  Poissons Ratio (z)      =       0.12143       0.12143
-------------------------------------------------------------------------------


  Piezoelectric Strain Matrix: (Units=C/m**2)

-------------------------------------------------------------------------------
  Indices      1         2         3         4         5         6    
-------------------------------------------------------------------------------
       x     2.48840  -2.48840  -0.00000  -0.74391   0.00005   0.00000
       y     0.00000  -0.00000  -0.00000   0.00005   0.74391  -2.48840
       z    -0.00004  -0.00004   0.00010   0.00000   0.00000  -0.00000
-------------------------------------------------------------------------------


  Piezoelectric Stress Matrix: (Units=10**-11 C/N)

-------------------------------------------------------------------------------
  Indices      1         2         3         4         5         6    
-------------------------------------------------------------------------------
       x     3.05746  -3.05746  -0.00000   0.58079   0.00010   0.00005
       y     0.00002  -0.00002  -0.00000   0.00010  -0.58079  -6.11491
       z    -0.00006  -0.00006   0.00011   0.00000   0.00000  -0.00000
-------------------------------------------------------------------------------


  Static dielectric constant tensor : 

-------------------------------------------------------------------------------
              x         y         z
-------------------------------------------------------------------------------
       x     4.51774  -0.00000  -0.00000
       y    -0.00000   4.51774   0.00000
       z    -0.00000   0.00000   4.84521
--------------------------------------------------------------------------------

  High frequency dielectric constant tensor : 

-------------------------------------------------------------------------------
              x         y         z
-------------------------------------------------------------------------------
       x     1.98276  -0.00000   0.00000
       y    -0.00000   1.98276  -0.00000
       z     0.00000  -0.00000   2.00114
-------------------------------------------------------------------------------

  Static refractive indices : 

-------------------------------------------------------------------------------
    1 =    2.12550      2 =    2.12550      3 =    2.20118
-------------------------------------------------------------------------------

  High frequency refractive indices : 

-------------------------------------------------------------------------------
    1 =    1.40810      2 =    1.40810      3 =    1.41462
-------------------------------------------------------------------------------


  Phonon Calculation : 

  Number of k points for this configuration =        1

--------------------------------------------------------------------------------
  K point      1 =   0.000000  0.000000  0.000000  Weight =    1.000
--------------------------------------------------------------------------------

  Frequencies (cm-1) [NB: Negative implies an imaginary mode]:

   -0.00   -0.00    0.00  140.47  140.47  195.69  268.52  268.52  343.91
  350.11  398.74  398.74  439.93  439.93  458.30  491.53  714.73  714.73
  811.30  811.30  824.37  898.93  903.08  903.08  910.49 1033.99 1033.99


--------------------------------------------------------------------------------
  Phonon properties (per mole of unit cells): Temperature =      0.000 K
--------------------------------------------------------------------------------
  Zero point energy            =        0.861376 eV
--------------------------------------------------------------------------------

  Phonon density of states : 

--------------------------------------------------------------------------------
 Frequency (cm-1) Density of States                                             
--------------------------------------------------------------------------------
    0.00000 |********************                                          0.040
   16.15607 |                                                              0.000
   32.31214 |                                                              0.000
   48.46821 |                                                              0.000
   64.62428 |                                                              0.000
   80.78035 |                                                              0.000
   96.93642 |                                                              0.000
  113.09249 |                                                              0.000
  129.24856 |****************************************                      0.080
  145.40463 |                                                              0.000
  161.56070 |                                                              0.000
  177.71677 |                                                              0.000
  193.87284 |********************                                          0.040
  210.02891 |                                                              0.000
  226.18498 |                                                              0.000
  242.34105 |                                                              0.000
  258.49712 |****************************************                      0.080
  274.65319 |                                                              0.000
  290.80927 |                                                              0.000
  306.96534 |                                                              0.000
  323.12141 |                                                              0.000
  339.27748 |****************************************                      0.080
  355.43355 |                                                              0.000
  371.58962 |                                                              0.000
  387.74569 |****************************************                      0.080
  403.90176 |                                                              0.000
  420.05783 |                                                              0.000
  436.21390 |****************************************                      0.080
  452.36997 |********************                                          0.040
  468.52604 |                                                              0.000
  484.68211 |********************                                          0.040
  500.83818 |                                                              0.000
  516.99425 |                                                              0.000
  533.15032 |                                                              0.000
  549.30639 |                                                              0.000
  565.46246 |                                                              0.000
  581.61853 |                                                              0.000
  597.77460 |                                                              0.000
  613.93067 |                                                              0.000
  630.08674 |                                                              0.000
  646.24281 |                                                              0.000
  662.39888 |                                                              0.000
  678.55495 |                                                              0.000
  694.71102 |                                                              0.000
  710.86709 |****************************************                      0.080
  727.02316 |                                                              0.000
  743.17923 |                                                              0.000
  759.33530 |                                                              0.000
  775.49137 |                                                              0.000
  791.64744 |                                                              0.000
  807.80351 |****************************************                      0.080
  823.95958 |********************                                          0.040
  840.11566 |                                                              0.000
  856.27173 |                                                              0.000
  872.42780 |                                                              0.000
  888.58387 |************************************************************  0.120
  904.73994 |********************                                          0.040
  920.89601 |                                                              0.000
  937.05208 |                                                              0.000
  953.20815 |                                                              0.000
  969.36422 |                                                              0.000
  985.52029 |                                                              0.000
 1001.67636 |                                                              0.000
 1017.83243 |****************************************                      0.080
--------------------------------------------------------------------------------



  Time to end of optimisation =       0.0963 seconds


  Peak dynamic memory used =       1.88 MB 


  Timing analysis for GULP :

--------------------------------------------------------------------------------
  Task / Subroutine                                          Time (Seconds)
--------------------------------------------------------------------------------
  Calculation of reciprocal space energy and derivatives          0.0021
  Calculation of reciprocal space energy using symmetry           0.0019
  Calculation of real space energy and derivatives                0.0094
  Calculation of real space energy using symmetry                 0.0093
  Calculation of three-body energy and derivatives                0.0037
  Calculation of phonons                                          0.0057
  Symmetry generation of equivalent positions                     0.0030
--------------------------------------------------------------------------------
  Total CPU time                                                  0.0964
--------------------------------------------------------------------------------


  Dump file written as example2.grs


  Job Finished at 01:20.15 26th February   2021                               

