********************************************************************************
*                       GENERAL UTILITY LATTICE PROGRAM                        *
*                                 Julian Gale                                  *
*                       Curtin Institute for Computation                       *
*                    School of Molecular and Life Sciences                     *
*                    Curtin University, Western Australia                      *
********************************************************************************
* Version = 5.2.0 * Last modified =  11th May 2020                             *
********************************************************************************
*  optimise     - perform optimisation run                                     *
*  conp         - constant pressure calculation                                *
*  phonon       - calculate phonons for final geometry                         *
*  compare      - compare initial and final structures                         *
********************************************************************************

  Job Started  at 01:16.34 26th February   2021                               

  Number of CPUs =     1


  Total number of configurations input =      1

********************************************************************************
*  Input for Configuration =   1 : ex02                                        *
********************************************************************************

  Formula = Si3O6                                                       

  Number of irreducible atoms/shells =       3


  Total number atoms/shells =      15

  Dimensionality = 3               :  Bulk   


  Symmetry :

  Crystal family                   :  Hexagonal   
  Crystal class  (Groth - 1921)    :  Trigonal Trapezohedral               

  Space group (noncentrosymmetric) :  P 31 2 1        

  Patterson group                  :  P -3 m 1 

  Cartesian lattice vectors (Angstroms) :

        4.914730    0.000000    0.000000
       -2.457365    4.256281    0.000000
        0.000000    0.000000    5.406570

  Cell parameters (Angstroms/Degrees):

  a =       4.9147    alpha =  90.0000
  b =       4.9147    beta  =  90.0000
  c =       5.4066    gamma = 120.0000

  Initial cell volume =         113.097184 Angs**3

  Temperature of configuration =   0.00     K 

  Pressure of configuration =         0.000 GPa 

  Fractional coordinates of asymmetric unit :

--------------------------------------------------------------------------------
   No.  Atomic       x           y          z         Charge      Occupancy
        Label      (Frac)      (Frac)     (Frac)        (e)         (Frac)  
--------------------------------------------------------------------------------
      1 Si    c    0.468200 *  0.000000    0.333333     4.00000    1.000000    
      2 O     c    0.413100 *  0.266100 *  0.213100 *   0.86902    1.000000    
      3 O     s    0.431813 *  0.264902 *  0.204106 *  -2.86902    1.000000    
--------------------------------------------------------------------------------


  Constraints : 

--------------------------------------------------------------------------------
  Constraint no.      Unconstrained     Constrained    Coefficient    Offset
                         Variable         Variable
--------------------------------------------------------------------------------
           1              Strain 1        Strain 2       1.00000      0.0000
--------------------------------------------------------------------------------

  Brillouin zone sampling points :

--------------------------------------------------------------------------------
  Point number          x          y          z            Weight
--------------------------------------------------------------------------------
        1           0.000000   0.000000   0.000000     1.00000000
--------------------------------------------------------------------------------


********************************************************************************
*  General input information                                                   *
********************************************************************************

  Species output for all configurations : 

--------------------------------------------------------------------------------
  Species    Type    Atomic    Atomic    Charge       Radii (Angs)     Library
                     Number     Mass       (e)     Cova   Ionic  VDW   Symbol
--------------------------------------------------------------------------------
    Si       Core       14      28.09   4.000000   1.200  0.000  2.100          
    O        Core        8      16.00   0.869020   0.730  0.000  1.360          
    O        Shell       8       0.00  -2.869020   0.730  0.000  1.360          
--------------------------------------------------------------------------------


  Lattice summation method               =    Ewald          (3-D)
                                         =    Parry          (2-D)
                                         =    Saunders et al (1-D)
  Accuracy factor for lattice sums       =   12.000


  Analytic derivatives to be used

  Time limit = Infinity

  Maximum range for interatomic potentials =    100000.000000 Angstroms

  General interatomic potentials :

--------------------------------------------------------------------------------
Atom  Types   Potential      Parameter       Value         Units   Cutoffs(Ang)
  1     2                                                            Min /  Max 
--------------------------------------------------------------------------------
Si   c O    s General       General A        1316.5525    eV*Ang^m  0.000  8.000
                            General rho     0.32050000    Ang       
                            General C        10.660000    eV*Ang^n  
                            Exponent m         0          None
                            Exponent n         6          None
--------------------------------------------------------------------------------
O    s O    s Buckingham    Buckingham A     22767.068    eV        0.000  8.000
                            Buckingham rho  0.15130000    Ang       
                            Buckingham C     27.880000    eV*Ang^6  
--------------------------------------------------------------------------------
O    c O    s Spring (c-s)  Spring k 2       74.920000    eV*Ang^-2 0.000  0.800
                            Spring k 4       0.0000000    eV*Ang^-4 
--------------------------------------------------------------------------------

  Potentials with energy / gradient boundary corrections : 

--------------------------------------------------------------------------------
    Potential       Atom1   Atom2    Type of correction
--------------------------------------------------------------------------------
    General  0  6   Si    c O     s  Gradient
--------------------------------------------------------------------------------

  General Three-body potentials :

--------------------------------------------------------------------------------
  Atoms       Potential      Parameter       Value         Units   Cutoffs(Ang)
  1 / 2 / 3                                                          Min /  Max 
--------------------------------------------------------------------------------
Si    core    Harmonic      Three-body cnst  2.0972400    eV*rad^-2 0.000  1.800
O     shel                  Three-body angl  109.47000    degrees   0.000  1.800
O     shel                  Three-body k4    0.0000000    eV*rad^-4 0.000  3.200
                            Three-body k3    0.0000000    eV*rad^-3 
--------------------------------------------------------------------------------

********************************************************************************
*  Output for configuration   1 : ex02                                         *
********************************************************************************


  Components of energy : 

--------------------------------------------------------------------------------
  Interatomic potentials     =         107.21155347 eV    
  Three-body potentials      =           0.05967375 eV    
  Monopole - monopole (real) =        -111.26563177 eV    
  Monopole - monopole (recip)=        -379.17637423 eV    
  Monopole - monopole (total)=        -490.44200600 eV    
--------------------------------------------------------------------------------
  Total lattice energy       =        -383.17077878 eV    
--------------------------------------------------------------------------------
  Total lattice energy       =          -36970.1229 kJ/(mole unit cells)
--------------------------------------------------------------------------------


  Number of variables =        9

  Maximum number of calculations  =          1000
  Maximum Hessian update interval =            10
  Maximum step size               =   1.000000000
  Maximum parameter tolerance     =   0.000010000
  Maximum function  tolerance     =   0.000010000
  Maximum gradient  tolerance     =   0.001000000
  Maximum gradient  component     =   0.010000000

  Symmetry constrained optimisation

  Symmetry used for second derivatives

  Cell parameters to be optimised using strains

  Newton-Raphson optimiser to be used

  BFGS hessian update to be used

  Lower half triangular hessian to be used

  Start of bulk optimisation :

  Cycle:      0 Energy:      -383.170779  Gnorm:      2.066327  CPU:    0.010
  ** Hessian calculated **
  Cycle:      1 Energy:      -383.215672  Gnorm:      1.356289  CPU:    0.013
  Cycle:      2 Energy:      -383.239360  Gnorm:      0.185380  CPU:    0.015
  Cycle:      3 Energy:      -383.241089  Gnorm:      0.078716  CPU:    0.018
  Cycle:      4 Energy:      -383.241119  Gnorm:      0.066057  CPU:    0.025
  Cycle:      5 Energy:      -383.241126  Gnorm:      0.062148  CPU:    0.028
  Cycle:      6 Energy:      -383.241126  Gnorm:      0.062391  CPU:    0.038
  Cycle:      7 Energy:      -383.241127  Gnorm:      0.067471  CPU:    0.041
  Cycle:      8 Energy:      -383.241137  Gnorm:      0.061413  CPU:    0.046
  Cycle:      9 Energy:      -383.241139  Gnorm:      0.059931  CPU:    0.050
  Cycle:     10 Energy:      -383.241140  Gnorm:      0.059190  CPU:    0.056
  ** Hessian calculated **
  Cycle:     11 Energy:      -383.241140  Gnorm:      0.059109  CPU:    0.066
  Cycle:     12 Energy:      -383.241140  Gnorm:      0.059064  CPU:    0.071
  Cycle:     13 Energy:      -383.241140  Gnorm:      0.059039  CPU:    0.076
  Cycle:     14 Energy:      -383.241140  Gnorm:      0.059024  CPU:    0.081
  Cycle:     15 Energy:      -383.241140  Gnorm:      0.059017  CPU:    0.084
  Cycle:     16 Energy:      -383.241140  Gnorm:      0.059013  CPU:    0.088
  Cycle:     17 Energy:      -383.241140  Gnorm:      0.059009  CPU:    0.091
  Cycle:     18 Energy:      -383.241140  Gnorm:      0.059005  CPU:    0.094
  Cycle:     19 Energy:      -383.241140  Gnorm:      0.058962  CPU:    0.096
  Cycle:     20 Energy:      -383.241140  Gnorm:      0.058938  CPU:    0.100
  ** Hessian calculated **
  Cycle:     21 Energy:      -383.241140  Gnorm:      0.059025  CPU:    0.111
  Cycle:     22 Energy:      -383.241141  Gnorm:      0.058971  CPU:    0.117
  Cycle:     23 Energy:      -383.241141  Gnorm:      0.058940  CPU:    0.122
  Cycle:     24 Energy:      -383.241141  Gnorm:      0.058913  CPU:    0.127
  Cycle:     25 Energy:      -383.241141  Gnorm:      0.058888  CPU:    0.133
  Cycle:     26 Energy:      -383.241141  Gnorm:      0.058864  CPU:    0.138
  Cycle:     27 Energy:      -383.241141  Gnorm:      0.058841  CPU:    0.143
  Cycle:     28 Energy:      -383.241141  Gnorm:      0.058829  CPU:    0.148
  Cycle:     29 Energy:      -383.241141  Gnorm:      0.058823  CPU:    0.154
  Cycle:     30 Energy:      -383.241141  Gnorm:      0.058821  CPU:    0.156
  ** Hessian calculated **
  Cycle:     31 Energy:      -383.241141  Gnorm:      0.058911  CPU:    0.170
  Cycle:     32 Energy:      -383.241141  Gnorm:      0.058854  CPU:    0.174
  Cycle:     33 Energy:      -383.241141  Gnorm:      0.058818  CPU:    0.177
  Cycle:     34 Energy:      -383.241141  Gnorm:      0.058795  CPU:    0.181
  Cycle:     35 Energy:      -383.241141  Gnorm:      0.058784  CPU:    0.184
  Cycle:     36 Energy:      -383.241141  Gnorm:      0.058773  CPU:    0.188
  Cycle:     37 Energy:      -383.241141  Gnorm:      0.058767  CPU:    0.192
  Cycle:     38 Energy:      -383.241141  Gnorm:      0.058764  CPU:    0.195
  Cycle:     39 Energy:      -383.241141  Gnorm:      0.058761  CPU:    0.197
  Cycle:     40 Energy:      -383.241141  Gnorm:      0.058758  CPU:    0.200
  ** Hessian calculated **
  Cycle:     41 Energy:      -383.241141  Gnorm:      0.058849  CPU:    0.215
  Cycle:     42 Energy:      -383.241141  Gnorm:      0.058792  CPU:    0.218
  Cycle:     43 Energy:      -383.241141  Gnorm:      0.058756  CPU:    0.223
  Cycle:     44 Energy:      -383.241141  Gnorm:      0.058728  CPU:    0.227
  Cycle:     45 Energy:      -383.241141  Gnorm:      0.058705  CPU:    0.231
  Cycle:     46 Energy:      -383.241141  Gnorm:      0.058694  CPU:    0.234
  Cycle:     47 Energy:      -383.241141  Gnorm:      0.058688  CPU:    0.238
  Cycle:     48 Energy:      -383.241141  Gnorm:      0.058683  CPU:    0.241
  Cycle:     49 Energy:      -383.241141  Gnorm:      0.058677  CPU:    0.244
  Cycle:     50 Energy:      -383.241141  Gnorm:      0.058625  CPU:    0.247
  ** Hessian calculated **
  Cycle:     51 Energy:      -383.241141  Gnorm:      0.058718  CPU:    0.258
  Cycle:     52 Energy:      -383.241141  Gnorm:      0.058661  CPU:    0.262
  Cycle:     53 Energy:      -383.241141  Gnorm:      0.058627  CPU:    0.265
  Cycle:     54 Energy:      -383.241141  Gnorm:      0.058600  CPU:    0.269
  Cycle:     55 Energy:      -383.241141  Gnorm:      0.058586  CPU:    0.273
  Cycle:     56 Energy:      -383.241141  Gnorm:      0.058572  CPU:    0.279
  Cycle:     57 Energy:      -383.241141  Gnorm:      0.058558  CPU:    0.285
  Cycle:     58 Energy:      -383.241141  Gnorm:      0.058539  CPU:    0.290
  Cycle:     59 Energy:      -383.241141  Gnorm:      0.058525  CPU:    0.296
  Cycle:     60 Energy:      -383.241141  Gnorm:      0.058510  CPU:    0.300
  ** Hessian calculated **
  Cycle:     61 Energy:      -383.241141  Gnorm:      0.058606  CPU:    0.314
  Cycle:     62 Energy:      -383.241142  Gnorm:      0.058548  CPU:    0.320
  Cycle:     63 Energy:      -383.241142  Gnorm:      0.058512  CPU:    0.323
  Cycle:     64 Energy:      -383.241142  Gnorm:      0.058487  CPU:    0.328
  Cycle:     65 Energy:      -383.241142  Gnorm:      0.058468  CPU:    0.331
  Cycle:     66 Energy:      -383.241142  Gnorm:      0.058447  CPU:    0.335
  Cycle:     67 Energy:      -383.241142  Gnorm:      0.058435  CPU:    0.340
  Cycle:     68 Energy:      -383.241142  Gnorm:      0.058428  CPU:    0.346
  Cycle:     69 Energy:      -383.241142  Gnorm:      0.058425  CPU:    0.350
  Cycle:     70 Energy:      -383.241142  Gnorm:      0.058405  CPU:    0.353
  ** Hessian calculated **
  Cycle:     71 Energy:      -383.241142  Gnorm:      0.058502  CPU:    0.370
  Cycle:     72 Energy:      -383.241142  Gnorm:      0.058443  CPU:    0.375
  Cycle:     73 Energy:      -383.241142  Gnorm:      0.058409  CPU:    0.381
  Cycle:     74 Energy:      -383.241142  Gnorm:      0.058383  CPU:    0.387
  Cycle:     75 Energy:      -383.241142  Gnorm:      0.058361  CPU:    0.393
  Cycle:     76 Energy:      -383.241142  Gnorm:      0.058339  CPU:    0.397
  Cycle:     77 Energy:      -383.241142  Gnorm:      0.058320  CPU:    0.401
  Cycle:     78 Energy:      -383.241142  Gnorm:      0.058311  CPU:    0.405
  Cycle:     79 Energy:      -383.241142  Gnorm:      0.058302  CPU:    0.407
  Cycle:     80 Energy:      -383.241142  Gnorm:      0.058299  CPU:    0.410
  ** Hessian calculated **
  Cycle:     81 Energy:      -383.241142  Gnorm:      0.058399  CPU:    0.423
  Cycle:     82 Energy:      -383.241142  Gnorm:      0.058339  CPU:    0.429
  Cycle:     83 Energy:      -383.241142  Gnorm:      0.058304  CPU:    0.434
  Cycle:     84 Energy:      -383.241142  Gnorm:      0.058282  CPU:    0.440
  Cycle:     85 Energy:      -383.241142  Gnorm:      0.058270  CPU:    0.445
  Cycle:     86 Energy:      -383.241142  Gnorm:      0.058253  CPU:    0.451
  Cycle:     87 Energy:      -383.241142  Gnorm:      0.058235  CPU:    0.455
  Cycle:     88 Energy:      -383.241142  Gnorm:      0.058216  CPU:    0.459
  Cycle:     89 Energy:      -383.241142  Gnorm:      0.058204  CPU:    0.464
  Cycle:     90 Energy:      -383.241142  Gnorm:      0.058193  CPU:    0.468
  ** Hessian calculated **
  Cycle:     91 Energy:      -383.241142  Gnorm:      0.058295  CPU:    0.481
  Cycle:     92 Energy:      -383.241142  Gnorm:      0.058233  CPU:    0.485
  Cycle:     93 Energy:      -383.241142  Gnorm:      0.058197  CPU:    0.488
  Cycle:     94 Energy:      -383.241142  Gnorm:      0.058170  CPU:    0.492
  Cycle:     95 Energy:      -383.241142  Gnorm:      0.058148  CPU:    0.495
  Cycle:     96 Energy:      -383.241142  Gnorm:      0.058136  CPU:    0.499
  Cycle:     97 Energy:      -383.241142  Gnorm:      0.058124  CPU:    0.501
  Cycle:     98 Energy:      -383.241142  Gnorm:      0.058113  CPU:    0.506
  Cycle:     99 Energy:      -383.241142  Gnorm:      0.058107  CPU:    0.511
  Cycle:    100 Energy:      -383.241142  Gnorm:      0.058101  CPU:    0.515
  ** Hessian calculated **
  Cycle:    101 Energy:      -383.241142  Gnorm:      0.058205  CPU:    0.531
  Cycle:    102 Energy:      -383.241142  Gnorm:      0.058143  CPU:    0.536
  Cycle:    103 Energy:      -383.241142  Gnorm:      0.058107  CPU:    0.542
  Cycle:    104 Energy:      -383.241143  Gnorm:      0.058081  CPU:    0.546
  Cycle:    105 Energy:      -383.241143  Gnorm:      0.058061  CPU:    0.549
  Cycle:    106 Energy:      -383.241143  Gnorm:      0.058041  CPU:    0.555
  Cycle:    107 Energy:      -383.241143  Gnorm:      0.058022  CPU:    0.558
  Cycle:    108 Energy:      -383.241143  Gnorm:      0.058012  CPU:    0.562
  Cycle:    109 Energy:      -383.241143  Gnorm:      0.058002  CPU:    0.565
  Cycle:    110 Energy:      -383.241143  Gnorm:      0.057997  CPU:    0.568
  ** Hessian calculated **
  Cycle:    111 Energy:      -383.241143  Gnorm:      0.058103  CPU:    0.582
  Cycle:    112 Energy:      -383.241143  Gnorm:      0.058039  CPU:    0.587
  Cycle:    113 Energy:      -383.241143  Gnorm:      0.058002  CPU:    0.592
  Cycle:    114 Energy:      -383.241143  Gnorm:      0.057977  CPU:    0.597
  Cycle:    115 Energy:      -383.241143  Gnorm:      0.057955  CPU:    0.602
  Cycle:    116 Energy:      -383.241143  Gnorm:      0.057938  CPU:    0.607
  Cycle:    117 Energy:      -383.241143  Gnorm:      0.057925  CPU:    0.613
  Cycle:    118 Energy:      -383.241143  Gnorm:      0.057908  CPU:    0.617
  Cycle:    119 Energy:      -383.241143  Gnorm:      0.057899  CPU:    0.621
  Cycle:    120 Energy:      -383.241143  Gnorm:      0.057895  CPU:    0.625
  ** Hessian calculated **
  Cycle:    121 Energy:      -383.241143  Gnorm:      0.058003  CPU:    0.636
  Cycle:    122 Energy:      -383.241143  Gnorm:      0.057938  CPU:    0.641
  Cycle:    123 Energy:      -383.241143  Gnorm:      0.057901  CPU:    0.645
  Cycle:    124 Energy:      -383.241143  Gnorm:      0.057875  CPU:    0.649
  Cycle:    125 Energy:      -383.241143  Gnorm:      0.057853  CPU:    0.655
  Cycle:    126 Energy:      -383.241143  Gnorm:      0.057833  CPU:    0.659
  Cycle:    127 Energy:      -383.241143  Gnorm:      0.057817  CPU:    0.662
  Cycle:    128 Energy:      -383.241143  Gnorm:      0.057801  CPU:    0.666
  Cycle:    129 Energy:      -383.241143  Gnorm:      0.057783  CPU:    0.670
  Cycle:    130 Energy:      -383.241143  Gnorm:      0.057774  CPU:    0.674
  ** Hessian calculated **
  Cycle:    131 Energy:      -383.241143  Gnorm:      0.057885  CPU:    0.687
  Cycle:    132 Energy:      -383.241143  Gnorm:      0.057818  CPU:    0.690
  Cycle:    133 Energy:      -383.241143  Gnorm:      0.057782  CPU:    0.694
  Cycle:    134 Energy:      -383.241143  Gnorm:      0.057759  CPU:    0.698
  Cycle:    135 Energy:      -383.241143  Gnorm:      0.057739  CPU:    0.702
  Cycle:    136 Energy:      -383.241143  Gnorm:      0.057724  CPU:    0.706
  Cycle:    137 Energy:      -383.241143  Gnorm:      0.057714  CPU:    0.710
  Cycle:    138 Energy:      -383.241143  Gnorm:      0.057698  CPU:    0.715
  Cycle:    139 Energy:      -383.241143  Gnorm:      0.057682  CPU:    0.720
  Cycle:    140 Energy:      -383.241143  Gnorm:      0.057670  CPU:    0.726
  ** Hessian calculated **
  Cycle:    141 Energy:      -383.241143  Gnorm:      0.057783  CPU:    0.742
  Cycle:    142 Energy:      -383.241143  Gnorm:      0.057715  CPU:    0.747
  Cycle:    143 Energy:      -383.241143  Gnorm:      0.057679  CPU:    0.751
  Cycle:    144 Energy:      -383.241144  Gnorm:      0.057654  CPU:    0.754
  Cycle:    145 Energy:      -383.241144  Gnorm:      0.057634  CPU:    0.758
  Cycle:    146 Energy:      -383.241144  Gnorm:      0.057624  CPU:    0.762
  Cycle:    147 Energy:      -383.241144  Gnorm:      0.057614  CPU:    0.764
  Cycle:    148 Energy:      -383.241144  Gnorm:      0.057604  CPU:    0.766
  Cycle:    149 Energy:      -383.241144  Gnorm:      0.057599  CPU:    0.770
  Cycle:    150 Energy:      -383.241144  Gnorm:      0.057596  CPU:    0.773
  ** Hessian calculated **
  Cycle:    151 Energy:      -383.241144  Gnorm:      0.057558  CPU:    0.781
  Cycle:    152 Energy:      -383.241144  Gnorm:      0.057532  CPU:    0.787
  Cycle:    153 Energy:      -383.240506  Gnorm:      0.057621  CPU:    0.802
  ** Hessian calculated **
  Cycle:    154 Energy:      -383.240547  Gnorm:      0.000528  CPU:    0.809


  **** Optimisation achieved ****


  Final energy =    -383.24055322 eV
  Final Gnorm  =       0.00000820

  Components of energy : 

--------------------------------------------------------------------------------
  Interatomic potentials     =         103.68944128 eV    
  Three-body potentials      =           0.04972323 eV    
  Monopole - monopole (real) =        -107.87755812 eV    
  Monopole - monopole (recip)=        -379.10215961 eV    
  Monopole - monopole (total)=        -486.97971774 eV    
--------------------------------------------------------------------------------
  Total lattice energy       =        -383.24055322 eV    
--------------------------------------------------------------------------------
  Total lattice energy       =          -36976.8550 kJ/(mole unit cells)
--------------------------------------------------------------------------------

  Final asymmetric unit coordinates :

--------------------------------------------------------------------------------
   No.  Atomic        x           y           z         Radius
        Label       (Frac)      (Frac)      (Frac)       (Angs) 
--------------------------------------------------------------------------------
     1  Si    c     0.465935    0.000000    0.333333    0.000000
     2  O     c     0.410366    0.274815    0.221092    0.000000
     3  O     s     0.429320    0.272936    0.210242    0.000000
--------------------------------------------------------------------------------

  Final Cartesian lattice vectors (Angstroms) :

        4.908501    0.000000    0.000000
       -2.454250    4.250886    0.000000
        0.000000    0.000000    5.420254


  Final cell parameters and derivatives :

--------------------------------------------------------------------------------
       a            4.908501 Angstrom     dE/de1(xx)    -0.000015 eV/strain
       b            4.908501 Angstrom     dE/de2(yy)     0.000000 eV/strain
       c            5.420254 Angstrom     dE/de3(zz)    -0.000066 eV/strain
       alpha       90.000000 Degrees      dE/de4(yz)     0.000000 eV/strain
       beta        90.000000 Degrees      dE/de5(xz)     0.000000 eV/strain
       gamma      120.000000 Degrees      dE/de6(xy)     0.000000 eV/strain
--------------------------------------------------------------------------------

  Primitive cell volume =           113.096181 Angs**3

  Density of cell =      2.646863 g/cm**3

  Non-primitive cell volume =           113.096181 Angs**3


  Final internal derivatives :

--------------------------------------------------------------------------------
   No.  Atomic          a             b             c           Radius
        Label          (eV)          (eV)          (eV)        (eV/Angs)
--------------------------------------------------------------------------------
      1 Si    c      -0.000002      0.000000      0.000000      0.000000
      2 O     c      -0.000016      0.000010      0.000006      0.000000
      3 O     s       0.000019     -0.000003      0.000005      0.000000
--------------------------------------------------------------------------------
  Maximum abs         0.000019      0.000010      0.000006      0.000000
--------------------------------------------------------------------------------

  Comparison of initial and final structures : 

--------------------------------------------------------------------------------
  Parameter   Initial value   Final value   Difference    Units      Percent
--------------------------------------------------------------------------------
    Volume       113.097184    113.096181    -0.001002    Angs**3     -0.00
    a              4.914730      4.908501    -0.006229    Angstroms   -0.13
    b              4.914730      4.908501    -0.006229    Angstroms   -0.13
    c              5.406570      5.420254     0.013684    Angstroms    0.25
    alpha         90.000000     90.000000     0.000000    Degrees      0.00
    beta          90.000000     90.000000     0.000000    Degrees      0.00
    gamma        120.000000    120.000000     0.000000    Degrees      0.00
      1 x          0.468200      0.465935     0.002265    Fractional   0.48
      1 y          0.000000      0.000000     0.000000    Fractional   0.00
      1 z          0.333333      0.333333     0.000000    Fractional   0.00
      2 x          0.413100      0.410366     0.002734    Fractional   0.66
      2 y          0.266100      0.274815     0.008715    Fractional   3.28
      2 z          0.213100      0.221092     0.007992    Fractional   3.75
      3 x          0.431813      0.429320     0.002493    Fractional   0.58
      3 y          0.264902      0.272936     0.008034    Fractional   3.03
      3 z          0.204106      0.210242     0.006136    Fractional   3.01
--------------------------------------------------------------------------------


  Born effective charge tensors : 

-------------------------------------------------------------------------------
  Atom             x           y             z
-------------------------------------------------------------------------------
    1 Si    x       3.0883      0.0000      0.0000
            y       0.0000      3.4786      0.2822
            z       0.0000     -0.1614      3.3766
-------------------------------------------------------------------------------
    2 O     x      -1.3971      0.3490     -0.2339
            y       0.3466     -1.8864      0.4883
            z      -0.1608      0.5386     -1.6883
-------------------------------------------------------------------------------




  Elastic Constant Matrix: (Units=GPa)

-------------------------------------------------------------------------------
  Indices      1         2         3         4         5         6    
-------------------------------------------------------------------------------
       1     90.8627   14.9912   17.1161  -15.2197    0.0002   -0.0000
       2     14.9912   90.8627   17.1161   15.2197   -0.0002   -0.0000
       3     17.1161   17.1161  109.3395    0.0000   -0.0000   -0.0000
       4    -15.2197   15.2197    0.0000   47.9637    0.0000   -0.0002
       5      0.0002   -0.0002   -0.0000    0.0000   47.9637  -15.2197
       6     -0.0000   -0.0000   -0.0000   -0.0002  -15.2197   37.9358
-------------------------------------------------------------------------------


  Elastic Compliance Matrix: (Units=1/GPa)

-------------------------------------------------------------------------------
  Indices      1         2         3         4         5         6    
-------------------------------------------------------------------------------
       1    0.012527 -0.002576 -0.001558  0.004792 -0.000000  0.000000
       2   -0.002576  0.012527 -0.001558 -0.004792  0.000000  0.000000
       3   -0.001558 -0.001558  0.009634 -0.000000  0.000000 -0.000000
       4    0.004792 -0.004792 -0.000000  0.023891 -0.000000  0.000000
       5   -0.000000  0.000000  0.000000 -0.000000  0.023891  0.009585
       6    0.000000  0.000000 -0.000000  0.000000  0.009585  0.030206
-------------------------------------------------------------------------------

  Mechanical properties :

-------------------------------------------------------------------------------
  Convention :                    Reuss         Voigt         Hill
-------------------------------------------------------------------------------
  Bulk  Modulus (GPa)     =      42.91073      43.27906      43.09490
  Shear Modulus (GPa)     =      37.92913      42.89541      40.41227
-------------------------------------------------------------------------------
  Velocity S-wave (km/s)  =       3.78548       4.02568       3.90743
  Velocity P-wave (km/s)  =       5.94293       6.16111       6.05300
-------------------------------------------------------------------------------
  Compressibility (1/GPa) =    0.02330419
-------------------------------------------------------------------------------
  Stress axis :                     x             y             z
-------------------------------------------------------------------------------
  Youngs Moduli (GPa)     =      79.82889      79.82889     103.80429
-------------------------------------------------------------------------------
  Poissons Ratio (x)      =                     0.20564       0.16170
  Poissons Ratio (y)      =       0.20564                     0.16170
  Poissons Ratio (z)      =       0.12435       0.12435
-------------------------------------------------------------------------------


  Piezoelectric Strain Matrix: (Units=C/m**2)

-------------------------------------------------------------------------------
  Indices      1         2         3         4         5         6    
-------------------------------------------------------------------------------
       x     2.65667  -2.65667  -0.00000  -1.18424   0.00006   0.00001
       y     0.00001  -0.00001  -0.00000   0.00006   1.18424  -2.65667
       z    -0.00004  -0.00004   0.00010   0.00000   0.00000  -0.00000
-------------------------------------------------------------------------------


  Piezoelectric Stress Matrix: (Units=10**-11 C/N)

-------------------------------------------------------------------------------
  Indices      1         2         3         4         5         6    
-------------------------------------------------------------------------------
       x     3.44480  -3.44480  -0.00000  -0.28284   0.00012   0.00006
       y     0.00003  -0.00003  -0.00000   0.00012   0.28284  -6.88961
       z    -0.00006  -0.00006   0.00011   0.00000   0.00000  -0.00000
-------------------------------------------------------------------------------


  Static dielectric constant tensor : 

-------------------------------------------------------------------------------
              x         y         z
-------------------------------------------------------------------------------
       x     4.42206  -0.00000  -0.00000
       y    -0.00000   4.42206   0.00000
       z    -0.00000   0.00000   4.70222
--------------------------------------------------------------------------------

  High frequency dielectric constant tensor : 

-------------------------------------------------------------------------------
              x         y         z
-------------------------------------------------------------------------------
       x     2.04899  -0.00000   0.00000
       y    -0.00000   2.04899  -0.00000
       z     0.00000  -0.00000   2.06966
-------------------------------------------------------------------------------

  Static refractive indices : 

-------------------------------------------------------------------------------
    1 =    2.10287      2 =    2.10287      3 =    2.16846
-------------------------------------------------------------------------------

  High frequency refractive indices : 

-------------------------------------------------------------------------------
    1 =    1.43143      2 =    1.43143      3 =    1.43863
-------------------------------------------------------------------------------


  Phonon Calculation : 

  Number of k points for this configuration =        1

--------------------------------------------------------------------------------
  K point      1 =   0.000000  0.000000  0.000000  Weight =    1.000
--------------------------------------------------------------------------------

  Frequencies (cm-1) [NB: Negative implies an imaginary mode]:

   -0.00   -0.00    0.00  143.31  143.31  219.71  267.63  267.63  329.13
  341.81  394.13  394.13  436.90  436.90  459.77  499.21  713.93  713.93
  815.88  815.88  819.08  908.72  910.41  910.41  921.93 1018.90 1018.90


--------------------------------------------------------------------------------
  Phonon properties (per mole of unit cells): Temperature =      0.000 K
--------------------------------------------------------------------------------
  Zero point energy            =        0.861791 eV
--------------------------------------------------------------------------------

  Phonon density of states : 

--------------------------------------------------------------------------------
 Frequency (cm-1) Density of States                                             
--------------------------------------------------------------------------------
    0.00000 |***************                                               0.040
   15.92030 |                                                              0.000
   31.84060 |                                                              0.000
   47.76090 |                                                              0.000
   63.68119 |                                                              0.000
   79.60149 |                                                              0.000
   95.52179 |                                                              0.000
  111.44209 |                                                              0.000
  127.36239 |                                                              0.000
  143.28269 |******************************                                0.080
  159.20299 |                                                              0.000
  175.12328 |                                                              0.000
  191.04358 |                                                              0.000
  206.96388 |***************                                               0.040
  222.88418 |                                                              0.000
  238.80448 |                                                              0.000
  254.72478 |******************************                                0.080
  270.64508 |                                                              0.000
  286.56538 |                                                              0.000
  302.48567 |                                                              0.000
  318.40597 |***************                                               0.040
  334.32627 |***************                                               0.040
  350.24657 |                                                              0.000
  366.16687 |                                                              0.000
  382.08717 |******************************                                0.080
  398.00747 |                                                              0.000
  413.92776 |                                                              0.000
  429.84806 |******************************                                0.080
  445.76836 |***************                                               0.040
  461.68866 |                                                              0.000
  477.60896 |                                                              0.000
  493.52926 |***************                                               0.040
  509.44956 |                                                              0.000
  525.36985 |                                                              0.000
  541.29015 |                                                              0.000
  557.21045 |                                                              0.000
  573.13075 |                                                              0.000
  589.05105 |                                                              0.000
  604.97135 |                                                              0.000
  620.89165 |                                                              0.000
  636.81195 |                                                              0.000
  652.73224 |                                                              0.000
  668.65254 |                                                              0.000
  684.57284 |                                                              0.000
  700.49314 |******************************                                0.080
  716.41344 |                                                              0.000
  732.33374 |                                                              0.000
  748.25404 |                                                              0.000
  764.17433 |                                                              0.000
  780.09463 |                                                              0.000
  796.01493 |                                                              0.000
  811.93523 |*********************************************                 0.120
  827.85553 |                                                              0.000
  843.77583 |                                                              0.000
  859.69613 |                                                              0.000
  875.61642 |                                                              0.000
  891.53672 |                                                              0.000
  907.45702 |************************************************************  0.160
  923.37732 |                                                              0.000
  939.29762 |                                                              0.000
  955.21792 |                                                              0.000
  971.13822 |                                                              0.000
  987.05851 |                                                              0.000
 1002.97881 |******************************                                0.080
--------------------------------------------------------------------------------



  Time to end of optimisation =       0.8262 seconds


  Peak dynamic memory used =       1.88 MB 


  Timing analysis for GULP :

--------------------------------------------------------------------------------
  Task / Subroutine                                          Time (Seconds)
--------------------------------------------------------------------------------
  Calculation of reciprocal space energy and derivatives          0.0095
  Calculation of reciprocal space energy using symmetry           0.1230
  Calculation of real space energy and derivatives                0.0092
  Calculation of real space energy using symmetry                 0.5785
  Calculation of three-body energy and derivatives                0.0595
  Calculation of phonons                                          0.0034
  Calculation and manipulation of Hessian matrix                  0.0002
  Calculation of matrix inversion                                 0.0001
  Symmetry generation of equivalent positions                     0.0051
  Global summation overhead                                       0.0017
--------------------------------------------------------------------------------
  Total CPU time                                                  0.8262
--------------------------------------------------------------------------------


  Dump file written as example2.grs


  Job Finished at 01:16.35 26th February   2021                               

