********************************************************************************
*                       GENERAL UTILITY LATTICE PROGRAM                        *
*                                 Julian Gale                                  *
*                       Curtin Institute for Computation                       *
*                    School of Molecular and Life Sciences                     *
*                    Curtin University, Western Australia                      *
********************************************************************************
* Version = 5.2.0 * Last modified =  10th September 2020                       *
********************************************************************************
*  fit          - perform fitting run                                          *
*  optimise     - perform optimisation run after fitting                       *
*  simplex      - use the simplex algorithm for fitting                        *
*  conp         - constant pressure calculation                                *
*  property     - calculate properties for final geometry                      *
*  phonon       - calculate phonons for final geometry                         *
*  relax        - relax structure during fitting                               *
*  compare      - compare initial and final structures                         *
********************************************************************************

  Job Started  at 21:50.02  7th December   2020                               

  Number of CPUs =     1


  Total number of configurations input =      1

********************************************************************************
*  Input for Configuration =   1 : ex14                                        *
********************************************************************************

  Formula = Si3O6                                                       

  Number of irreducible atoms/shells =       3


  Total number atoms/shells =      15

  Dimensionality = 3               :  Bulk   


  Symmetry :

  Crystal family                   :  Hexagonal   
  Crystal class  (Groth - 1921)    :  Trigonal Trapezohedral               

  Space group (noncentrosymmetric) :  P 31 2 1        

  Patterson group                  :  P -3 m 1 

  Cartesian lattice vectors (Angstroms) :

        4.914730    0.000000    0.000000
       -2.457365    4.256281    0.000000
        0.000000    0.000000    5.406570

  Cell parameters (Angstroms/Degrees):

  a =       4.9147    alpha =  90.0000
  b =       4.9147    beta  =  90.0000
  c =       5.4066    gamma = 120.0000

  Initial cell volume =         113.097184 Angs**3

  Temperature of configuration =   0.00     K 

  Pressure of configuration =         0.000 GPa 

  Fractional coordinates of asymmetric unit :

--------------------------------------------------------------------------------
   No.  Atomic       x           y          z         Charge      Occupancy
        Label      (Frac)      (Frac)     (Frac)        (e)         (Frac)  
--------------------------------------------------------------------------------
      1 Si    c    0.468200 *  0.000000    0.333333     4.00000    1.000000    
      2 O     c    0.413100 *  0.266100 *  0.213100 *   0.86902    1.000000    
      3 O     s    0.431813 *  0.264902 *  0.204106 *  -2.86902    1.000000    
--------------------------------------------------------------------------------


  Constraints : 

--------------------------------------------------------------------------------
  Constraint no.      Unconstrained     Constrained    Coefficient    Offset
                         Variable         Variable
--------------------------------------------------------------------------------
           1              Strain 1        Strain 2       1.00000      0.0000
--------------------------------------------------------------------------------

  Brillouin zone sampling points :

--------------------------------------------------------------------------------
  Point number          x          y          z            Weight
--------------------------------------------------------------------------------
        1           0.000000   0.000000   0.000000     1.00000000
--------------------------------------------------------------------------------


********************************************************************************
*  General input information                                                   *
********************************************************************************

  Species output for all configurations : 

--------------------------------------------------------------------------------
  Species    Type    Atomic    Atomic    Charge       Radii (Angs)     Library
                     Number     Mass       (e)     Cova   Ionic  VDW   Symbol
--------------------------------------------------------------------------------
    Si       Core       14      28.09   4.000000   1.200  0.000  2.100          
    O        Core        8      16.00   0.869020   0.730  0.000  1.360          
    O        Shell       8       0.00  -2.869020   0.730  0.000  1.360          
--------------------------------------------------------------------------------


  Lattice summation method               =    Ewald          (3-D)
                                         =    Parry          (2-D)
                                         =    Saunders et al (1-D)
  Accuracy factor for lattice sums       =   12.000


  Analytic derivatives to be used

  Time limit = Infinity

  Maximum range for interatomic potentials =    100000.000000 Angstroms

  General interatomic potentials :

--------------------------------------------------------------------------------
Atom  Types   Potential      Parameter       Value         Units   Cutoffs(Ang)
  1     2                                                            Min /  Max 
--------------------------------------------------------------------------------
Si   c O    s Buckingham    Buckingham A     1283.0377    eV        0.000 12.000
                            Buckingham rho  0.32050000    Ang       
                            Buckingham C     10.660000    eV*Ang^6  
--------------------------------------------------------------------------------
O    s O    s Buckingham    Buckingham A     22764.000    eV        0.000 12.000
                            Buckingham rho  0.14900000    Ang       
                            Buckingham C     27.880000    eV*Ang^6  
--------------------------------------------------------------------------------
O    c O    s Spring (c-s)  Spring k 2       74.920000    eV*Ang^-2 0.000  0.800
                            Spring k 4       0.0000000    eV*Ang^-4 
--------------------------------------------------------------------------------

  General Three-body potentials :

--------------------------------------------------------------------------------
  Atoms       Potential      Parameter       Value         Units   Cutoffs(Ang)
  1 / 2 / 3                                                          Min /  Max 
--------------------------------------------------------------------------------
Si    core    Harmonic      Three-body cnst  2.0972400    eV*rad^-2 0.000  1.800
O     shel                  Three-body angl  109.47000    degrees   0.000  1.800
O     shel                  Three-body k4    0.0000000    eV*rad^-4 0.000  3.500
                            Three-body k3    0.0000000    eV*rad^-3 
--------------------------------------------------------------------------------


  Number of variables   =    7
  Number of observables =   13

--------------------------------------------------------------------------------
   Observable no.  Type           Observable    Weight       Reference  Confign 
--------------------------------------------------------------------------------
          1        Elastic Const    86.830000        0.0100    1  1        1
          2        Elastic Const   104.980000        0.0100    3  3        1
          3        Elastic Const    58.260000        0.0100    4  4        1
          4        Elastic Const    39.870000        0.0100    6  6        1
          5        Static Di C       4.520000        1.0000    1  1        1
          6        Static Di C       4.640000        1.0000    3  3        1
          7        High Freq DiC     2.400000        1.0000    1  1        1
          8        Structure         0.468200    10000.0000    1 x         1
          9        Structure         0.413100    10000.0000    2 x         1
         10        Structure         0.266100    10000.0000    2 y         1
         11        Structure         0.213100    10000.0000    2 z         1
         12        Structure         4.914730     1000.0000    a           1
         13        Structure         5.406570     1000.0000    c           1
--------------------------------------------------------------------------------

  Variables :

--------------------------------------------------------------------------------
     Parameter No.       Parameter Value          Parameter Type  Species
--------------------------------------------------------------------------------
             1               1283.037674          Buckingham A   
             2                  0.320500          Buckingham rho 
             3              22764.000000          Buckingham A   
             4                  0.149000          Buckingham rho 
             5                 74.920000          Spring k 2     
             6                  2.097240          Three-body cnst     1
             7                109.470000          Three-body angl     1
--------------------------------------------------------------------------------

  Symmetry constraints used for fitting
  Simplex algorithm to be used in fitting

  Maximum no. of cycles   =       5000
  Maximum step size       =  1000.0000
  Tolerance on parameters =  0.0000100
  Tolerance on function   =  0.0000100
  Differencing interval   =  0.0001000

  Start of fitting :

  Cycle:      0  Sum sqs:            17.022899  CPU:    0.031
  Cycle:      1  Sum sqs:             2.839946  CPU:    4.484
  Cycle:      2  Sum sqs:             1.827288  CPU:    6.594


!!!!!!!!!!!!!!!!!!!!!!!!!!!!!!!!!!!!!!!!!!!!!!!!!!!!!!!!!!!!!!!!!!!!!!!!!!!!!!!!
!! ERROR : Cell parameter has fallen below allowed limit
!!!!!!!!!!!!!!!!!!!!!!!!!!!!!!!!!!!!!!!!!!!!!!!!!!!!!!!!!!!!!!!!!!!!!!!!!!!!!!!!



!!!!!!!!!!!!!!!!!!!!!!!!!!!!!!!!!!!!!!!!!!!!!!!!!!!!!!!!!!!!!!!!!!!!!!!!!!!!!!!!
!! ERROR : Cell parameter has fallen below allowed limit
!!!!!!!!!!!!!!!!!!!!!!!!!!!!!!!!!!!!!!!!!!!!!!!!!!!!!!!!!!!!!!!!!!!!!!!!!!!!!!!!



!!!!!!!!!!!!!!!!!!!!!!!!!!!!!!!!!!!!!!!!!!!!!!!!!!!!!!!!!!!!!!!!!!!!!!!!!!!!!!!!
!! ERROR : Cell parameter has fallen below allowed limit
!!!!!!!!!!!!!!!!!!!!!!!!!!!!!!!!!!!!!!!!!!!!!!!!!!!!!!!!!!!!!!!!!!!!!!!!!!!!!!!!



!!!!!!!!!!!!!!!!!!!!!!!!!!!!!!!!!!!!!!!!!!!!!!!!!!!!!!!!!!!!!!!!!!!!!!!!!!!!!!!!
!! ERROR : Cell parameter has fallen below allowed limit
!!!!!!!!!!!!!!!!!!!!!!!!!!!!!!!!!!!!!!!!!!!!!!!!!!!!!!!!!!!!!!!!!!!!!!!!!!!!!!!!



!!!!!!!!!!!!!!!!!!!!!!!!!!!!!!!!!!!!!!!!!!!!!!!!!!!!!!!!!!!!!!!!!!!!!!!!!!!!!!!!
!! ERROR : Cell parameter has fallen below allowed limit
!!!!!!!!!!!!!!!!!!!!!!!!!!!!!!!!!!!!!!!!!!!!!!!!!!!!!!!!!!!!!!!!!!!!!!!!!!!!!!!!



!!!!!!!!!!!!!!!!!!!!!!!!!!!!!!!!!!!!!!!!!!!!!!!!!!!!!!!!!!!!!!!!!!!!!!!!!!!!!!!!
!! ERROR : Cell parameter has fallen below allowed limit
!!!!!!!!!!!!!!!!!!!!!!!!!!!!!!!!!!!!!!!!!!!!!!!!!!!!!!!!!!!!!!!!!!!!!!!!!!!!!!!!



!!!!!!!!!!!!!!!!!!!!!!!!!!!!!!!!!!!!!!!!!!!!!!!!!!!!!!!!!!!!!!!!!!!!!!!!!!!!!!!!
!! ERROR : Cell parameter has fallen below allowed limit
!!!!!!!!!!!!!!!!!!!!!!!!!!!!!!!!!!!!!!!!!!!!!!!!!!!!!!!!!!!!!!!!!!!!!!!!!!!!!!!!

  Cycle:      3  Sum sqs:             1.691580  CPU:    8.109
  Cycle:      4  Sum sqs:             1.685962  CPU:    9.188
  Cycle:      5  Sum sqs:             1.677899  CPU:   11.266
  Cycle:      6  Sum sqs:             1.677447  CPU:   15.312
  Cycle:      7  Sum sqs:             1.675661  CPU:   15.844
  Cycle:      8  Sum sqs:             1.672776  CPU:   16.484
  Cycle:      9  Sum sqs:             1.672209  CPU:   17.391
  Cycle:     10  Sum sqs:             1.671328  CPU:   18.125
  Cycle:     11  Sum sqs:             1.670944  CPU:   18.906
  Cycle:     12  Sum sqs:             1.670553  CPU:   19.391
  Cycle:     13  Sum sqs:             1.670022  CPU:   20.234
  Cycle:     14  Sum sqs:             1.669785  CPU:   21.234
  Cycle:     15  Sum sqs:             1.660351  CPU:   22.594
  Cycle:     16  Sum sqs:             1.659603  CPU:   23.578
  Cycle:     17  Sum sqs:             1.659504  CPU:   24.344
  Cycle:     18  Sum sqs:             1.659401  CPU:   24.906
  Cycle:     19  Sum sqs:             1.659333  CPU:   25.453
  Cycle:     20  Sum sqs:             1.656873  CPU:   27.344
  Cycle:     21  Sum sqs:             1.614394  CPU:   28.844
  Cycle:     22  Sum sqs:             1.614231  CPU:   29.547
  Cycle:     23  Sum sqs:             1.613124  CPU:   32.375
  Cycle:     24  Sum sqs:             1.613124  CPU:   33.641
  Cycle:     25  Sum sqs:             1.613124  CPU:   34.828
  Cycle:     26  Sum sqs:             1.613124  CPU:   36.016


  **** Fit completed successfully ****


  Final sum of squares =             1.613124


!!!!!!!!!!!!!!!!!!!!!!!!!!!!!!!!!!!!!!!!!!!!!!!!!!!!!!!!!!!!!!!!!!!!!!!!!!!!!!!!
!! WARNING : Not all configurations optimised successfully in relaxed fit
!!!!!!!!!!!!!!!!!!!!!!!!!!!!!!!!!!!!!!!!!!!!!!!!!!!!!!!!!!!!!!!!!!!!!!!!!!!!!!!!


  Final values of parameters :

--------------------------------------------------------------------------------
 Parameter No.    Parameter        Parameter      Parameter Type  Species
                  Original         Final                                 
--------------------------------------------------------------------------------
         1           1283.037674      1264.349962 Buckingham A   
         2              0.320500         0.322040 Buckingham rho 
         3          22764.000000       853.248774 Buckingham A   
         4              0.149000         0.070465 Buckingham rho 
         5             74.920000        80.739332 Spring k 2     
         6              2.097240         1.827542 Three-body cnst     1
         7            109.470000       134.529055 Three-body angl     1
--------------------------------------------------------------------------------


  Final values of residuals :

--------------------------------------------------------------------------------
   Observable no.  Type            Observable   Calculated    Residual  Error(%)
--------------------------------------------------------------------------------
          1        Elastic Const     86.83000     92.02740      0.27013    5.986
          2        Elastic Const    104.98000    107.07327      0.04382    1.994
          3        Elastic Const     58.26000     50.51745      0.59947  -13.290
          4        Elastic Const     39.87000     41.29764      0.02038    3.581
          5        Static Di C        4.52000      4.41266      0.01152   -2.375
          6        Static Di C        4.64000      4.67243      0.00105    0.699
          7        High Freq DiC      2.40000      1.98947      0.16854  -17.106
          8        Structure          0.46820      0.47033      0.04532    0.455
          9        Structure          0.41310      0.41503      0.03728    0.467
         10        Structure          0.26610      0.26822      0.04491    0.796
         11        Structure          0.21310      0.21453      0.02045    0.671
         12        Structure          4.91473      4.89947      0.23297   -0.311
         13        Structure          5.40657      5.41740      0.11729    0.200
--------------------------------------------------------------------------------

  Comparison of initial and final observables :

--------------------------------------------------------------------------------
   Observable no.  Type            Observable   Initial       Final             
--------------------------------------------------------------------------------
          1        Elastic Const     86.83000     94.71121     92.02740
          2        Elastic Const    104.98000    116.28552    107.07327
          3        Elastic Const     58.26000     50.04908     50.51745
          4        Elastic Const     39.87000     38.07975     41.29764
          5        Static Di C        4.52000      4.75221      4.41266
          6        Static Di C        4.64000      5.02516      4.67243
          7        High Freq DiC      2.40000      2.11948      1.98947
          8        Structure          0.46820      0.46367      0.47033
          9        Structure          0.41310      0.40817      0.41503
         10        Structure          0.26610      0.27869      0.26822
         11        Structure          0.21310      0.22486      0.21453
         12        Structure          4.91473      4.83277      4.89947
         13        Structure          5.40657      5.34332      5.41740
--------------------------------------------------------------------------------

  Maximum range for interatomic potentials =    100000.000000 Angstroms

  General interatomic potentials :

--------------------------------------------------------------------------------
Atom  Types   Potential      Parameter       Value         Units   Cutoffs(Ang)
  1     2                                                            Min /  Max 
--------------------------------------------------------------------------------
Si   c O    s Buckingham    Buckingham A     1264.3500    eV        0.000 12.000
                            Buckingham rho  0.32203994    Ang       
                            Buckingham C     10.660000    eV*Ang^6  
--------------------------------------------------------------------------------
O    s O    s Buckingham    Buckingham A     853.24877    eV        0.000 12.000
                            Buckingham rho  0.70464765E-01Ang       
                            Buckingham C     27.880000    eV*Ang^6  
--------------------------------------------------------------------------------
O    c O    s Spring (c-s)  Spring k 2       80.739332    eV*Ang^-2 0.000  0.800
                            Spring k 4       0.0000000    eV*Ang^-4 
--------------------------------------------------------------------------------

  General Three-body potentials :

--------------------------------------------------------------------------------
  Atoms       Potential      Parameter       Value         Units   Cutoffs(Ang)
  1 / 2 / 3                                                          Min /  Max 
--------------------------------------------------------------------------------
Si    core    Harmonic      Three-body cnst  1.8275418    eV*rad^-2 0.000  1.800
O     shel                  Three-body angl  134.52905    degrees   0.000  1.800
O     shel                  Three-body k4    0.0000000    eV*rad^-4 0.000  3.500
                            Three-body k3    0.0000000    eV*rad^-3 
--------------------------------------------------------------------------------



  Total time to end of fitting =      36.0469 seconds

********************************************************************************
*  Output for configuration   1 : ex14                                         *
********************************************************************************


  Components of energy : 

--------------------------------------------------------------------------------
  Interatomic potentials     =         105.40470051 eV    
  Three-body potentials      =           3.19596853 eV    
  Monopole - monopole (real) =        -111.26563177 eV    
  Monopole - monopole (recip)=        -379.17637423 eV    
  Monopole - monopole (total)=        -490.44200600 eV    
--------------------------------------------------------------------------------
  Total lattice energy       =        -381.84133696 eV    
--------------------------------------------------------------------------------
  Total lattice energy       =          -36841.8520 kJ/(mole unit cells)
--------------------------------------------------------------------------------


  Number of variables =        9

  Maximum number of calculations  =          1000
  Maximum Hessian update interval =            10
  Maximum step size               =   1.000000000
  Maximum parameter tolerance     =   0.000010000
  Maximum function  tolerance     =   0.000010000
  Maximum gradient  tolerance     =   0.001000000
  Maximum gradient  component     =   0.010000000

  Symmetry constrained optimisation

  Symmetry used for second derivatives

  Cell parameters to be optimised using strains

  Newton-Raphson optimiser to be used

  BFGS hessian update to be used

  Lower half triangular hessian to be used

  Start of bulk optimisation :

  Cycle:      0 Energy:      -381.841337  Gnorm:      3.365660  CPU:   36.047
  ** Hessian calculated **
  Cycle:      1 Energy:      -381.864254  Gnorm:      0.049609  CPU:   36.047
  Cycle:      2 Energy:      -381.864256  Gnorm:      0.047754  CPU:   36.047
  ** Hessian calculated **
  Cycle:      3 Energy:      -381.864256  Gnorm:      0.047747  CPU:   36.062
  ** Hessian calculated **


  **** Conditions for a minimum have not been satisfied. However ****
  **** no lower point can be found - treat results with caution  ****
  **** unless gradient norm is small (less than 0.1)             ****


  Final energy =    -381.86426138 eV
  Final Gnorm  =       0.04774067

  Components of energy : 

--------------------------------------------------------------------------------
  Interatomic potentials     =         105.19426606 eV    
  Three-body potentials      =           3.19200726 eV    
  Monopole - monopole (real) =        -110.56226715 eV    
  Monopole - monopole (recip)=        -379.68826755 eV    
  Monopole - monopole (total)=        -490.25053470 eV    
--------------------------------------------------------------------------------
  Total lattice energy       =        -381.86426138 eV    
--------------------------------------------------------------------------------
  Total lattice energy       =          -36844.0639 kJ/(mole unit cells)
--------------------------------------------------------------------------------

  Final asymmetric unit coordinates :

--------------------------------------------------------------------------------
   No.  Atomic        x           y           z         Radius
        Label       (Frac)      (Frac)      (Frac)       (Angs) 
--------------------------------------------------------------------------------
     1  Si    c     0.470329    0.000000    0.333333    0.000000
     2  O     c     0.415031    0.268219    0.214530    0.000000
     3  O     s     0.432286    0.267306    0.205319    0.000000
--------------------------------------------------------------------------------

  Final Cartesian lattice vectors (Angstroms) :

        4.899467    0.000000    0.000000
       -2.449733    4.243063    0.000000
        0.000000    0.000000    5.417400


  Final cell parameters and derivatives :

--------------------------------------------------------------------------------
       a            4.899467 Angstrom     dE/de1(xx)     0.050990 eV/strain
       b            4.899467 Angstrom     dE/de2(yy)     0.000000 eV/strain
       c            5.417400 Angstrom     dE/de3(zz)     0.008978 eV/strain
       alpha       90.000000 Degrees      dE/de4(yz)     0.000000 eV/strain
       beta        90.000000 Degrees      dE/de5(xz)     0.000000 eV/strain
       gamma      120.000000 Degrees      dE/de6(xy)     0.000000 eV/strain
--------------------------------------------------------------------------------

  Primitive cell volume =           112.620939 Angs**3

  Density of cell =      2.658033 g/cm**3

  Non-primitive cell volume =           112.620939 Angs**3


  Final internal derivatives :

--------------------------------------------------------------------------------
   No.  Atomic          a             b             c           Radius
        Label          (eV)          (eV)          (eV)        (eV/Angs)
--------------------------------------------------------------------------------
      1 Si    c      -0.162101      0.000000      0.000000      0.000000
      2 O     c      -0.198405     -0.046317      0.115764      0.000000
      3 O     s       0.302654     -0.053588     -0.079201      0.000000
--------------------------------------------------------------------------------
  Maximum abs         0.302654      0.053588      0.115764      0.000000
--------------------------------------------------------------------------------

  Comparison of initial and final structures : 

--------------------------------------------------------------------------------
  Parameter   Initial value   Final value   Difference    Units      Percent
--------------------------------------------------------------------------------
    Volume       113.097184    112.620939    -0.476244    Angs**3     -0.42
    a              4.914730      4.899467    -0.015263    Angstroms   -0.31
    b              4.914730      4.899467    -0.015263    Angstroms   -0.31
    c              5.406570      5.417400     0.010830    Angstroms    0.20
    alpha         90.000000     90.000000     0.000000    Degrees      0.00
    beta          90.000000     90.000000     0.000000    Degrees      0.00
    gamma        120.000000    120.000000     0.000000    Degrees      0.00
      1 x          0.468200      0.470329     0.002129    Fractional   0.45
      1 y          0.000000      0.000000     0.000000    Fractional   0.00
      1 z          0.333333      0.333333     0.000000    Fractional   0.00
      2 x          0.413100      0.415031     0.001931    Fractional   0.47
      2 y          0.266100      0.268219     0.002119    Fractional   0.80
      2 z          0.213100      0.214530     0.001430    Fractional   0.67
      3 x          0.431813      0.432286     0.000473    Fractional   0.11
      3 y          0.264902      0.267306     0.002404    Fractional   0.91
      3 z          0.204106      0.205319     0.001213    Fractional   0.59
--------------------------------------------------------------------------------


  Born effective charge tensors : 

-------------------------------------------------------------------------------
  Atom             x           y             z
-------------------------------------------------------------------------------
    1 Si    x       3.1644      0.0000      0.0000
            y       0.0000      3.5923      0.2683
            z       0.0000     -0.1677      3.4737
-------------------------------------------------------------------------------
    2 O     x      -1.4237      0.3828     -0.2713
            y       0.3793     -1.9547      0.5458
            z      -0.1991      0.5919     -1.7369
-------------------------------------------------------------------------------




  Elastic Constant Matrix: (Units=GPa)

-------------------------------------------------------------------------------
  Indices      1         2         3         4         5         6    
-------------------------------------------------------------------------------
       1     92.0274    9.4321   20.1303  -16.0438    0.0002   -0.0000
       2      9.4321   92.0274   20.1303   16.0438   -0.0002   -0.0000
       3     20.1303   20.1303  107.0733    0.0000   -0.0000   -0.0000
       4    -16.0438   16.0438    0.0000   50.5174    0.0000   -0.0002
       5      0.0002   -0.0002   -0.0000    0.0000   50.5174  -16.0438
       6     -0.0000   -0.0000   -0.0000   -0.0002  -16.0438   41.2976
-------------------------------------------------------------------------------


  Elastic Compliance Matrix: (Units=1/GPa)

-------------------------------------------------------------------------------
  Indices      1         2         3         4         5         6    
-------------------------------------------------------------------------------
       1    0.012231 -0.001580 -0.002002  0.004386 -0.000000  0.000000
       2   -0.001580  0.012231 -0.002002 -0.004386  0.000000  0.000000
       3   -0.002002 -0.002002  0.010092 -0.000000  0.000000 -0.000000
       4    0.004386 -0.004386 -0.000000  0.022581 -0.000000  0.000000
       5   -0.000000  0.000000  0.000000 -0.000000  0.022581  0.008773
       6    0.000000  0.000000 -0.000000  0.000000  0.008773  0.027623
-------------------------------------------------------------------------------

  Mechanical properties :

-------------------------------------------------------------------------------
  Convention :                    Reuss         Voigt         Hill
-------------------------------------------------------------------------------
  Bulk  Modulus (GPa)     =      42.76391      43.39041      43.07716
  Shear Modulus (GPa)     =      39.58697      44.56219      42.07458
-------------------------------------------------------------------------------
  Velocity S-wave (km/s)  =       3.85919       4.09452       3.97860
  Velocity P-wave (km/s)  =       5.99553       6.21914       6.10836
-------------------------------------------------------------------------------
  Compressibility (1/GPa) =    0.02338420
-------------------------------------------------------------------------------
  Stress axis :                     x             y             z
-------------------------------------------------------------------------------
  Youngs Moduli (GPa)     =      81.75946      81.75946      99.08524
-------------------------------------------------------------------------------
  Poissons Ratio (x)      =                     0.12920       0.19841
  Poissons Ratio (y)      =       0.12920                     0.19841
  Poissons Ratio (z)      =       0.16371       0.16371
-------------------------------------------------------------------------------


  Piezoelectric Strain Matrix: (Units=C/m**2)

-------------------------------------------------------------------------------
  Indices      1         2         3         4         5         6    
-------------------------------------------------------------------------------
       x     2.28483  -2.28483  -0.00000  -0.69255   0.00005   0.00000
       y     0.00000  -0.00000  -0.00000   0.00005   0.69255  -2.28483
       z    -0.00004  -0.00004   0.00009   0.00000   0.00000  -0.00000
-------------------------------------------------------------------------------


  Piezoelectric Stress Matrix: (Units=10**-11 C/N)

-------------------------------------------------------------------------------
  Indices      1         2         3         4         5         6    
-------------------------------------------------------------------------------
       x     2.85187  -2.85187  -0.00000   0.44053   0.00009   0.00004
       y     0.00002  -0.00002  -0.00000   0.00009  -0.44053  -5.70374
       z    -0.00007  -0.00007   0.00011   0.00000   0.00000  -0.00000
-------------------------------------------------------------------------------


  Static dielectric constant tensor : 

-------------------------------------------------------------------------------
              x         y         z
-------------------------------------------------------------------------------
       x     4.41266  -0.00000  -0.00000
       y    -0.00000   4.41266   0.00000
       z    -0.00000   0.00000   4.67243
--------------------------------------------------------------------------------

  High frequency dielectric constant tensor : 

-------------------------------------------------------------------------------
              x         y         z
-------------------------------------------------------------------------------
       x     1.98947  -0.00000   0.00000
       y    -0.00000   1.98947  -0.00000
       z     0.00000  -0.00000   2.00874
-------------------------------------------------------------------------------

  Static refractive indices : 

-------------------------------------------------------------------------------
    1 =    2.10063      2 =    2.10063      3 =    2.16158
-------------------------------------------------------------------------------

  High frequency refractive indices : 

-------------------------------------------------------------------------------
    1 =    1.41048      2 =    1.41048      3 =    1.41730
-------------------------------------------------------------------------------


  Phonon Calculation : 

  Number of k points for this configuration =        1

--------------------------------------------------------------------------------
  K point      1 =   0.000000  0.000000  0.000000  Weight =    1.000
--------------------------------------------------------------------------------

  Frequencies (cm-1) [NB: Negative implies an imaginary mode]:

   -0.00    0.00    0.00  139.67  139.67  199.19  262.07  262.07  349.90
  356.24  395.26  395.26  449.62  449.62  452.70  500.91  718.45  718.45
  815.02  815.02  827.65  888.90  897.67  897.67  904.39 1032.23 1032.23


--------------------------------------------------------------------------------
  Phonon properties (per mole of unit cells): Temperature =      0.000 K
--------------------------------------------------------------------------------
  Zero point energy            =        0.861686 eV
--------------------------------------------------------------------------------

  Phonon density of states : 

--------------------------------------------------------------------------------
 Frequency (cm-1) Density of States                                             
--------------------------------------------------------------------------------
    0.00000 |****************************************                      0.077
   16.12860 |                                                              0.000
   32.25719 |                                                              0.000
   48.38579 |                                                              0.000
   64.51438 |                                                              0.000
   80.64298 |                                                              0.000
   96.77157 |                                                              0.000
  112.90017 |                                                              0.000
  129.02876 |****************************************                      0.077
  145.15736 |                                                              0.000
  161.28595 |                                                              0.000
  177.41455 |                                                              0.000
  193.54314 |********************                                          0.038
  209.67174 |                                                              0.000
  225.80033 |                                                              0.000
  241.92893 |                                                              0.000
  258.05752 |****************************************                      0.077
  274.18612 |                                                              0.000
  290.31471 |                                                              0.000
  306.44331 |                                                              0.000
  322.57190 |                                                              0.000
  338.70050 |********************                                          0.038
  354.82909 |********************                                          0.038
  370.95769 |                                                              0.000
  387.08628 |****************************************                      0.077
  403.21488 |                                                              0.000
  419.34347 |                                                              0.000
  435.47207 |****************************************                      0.077
  451.60066 |********************                                          0.038
  467.72926 |                                                              0.000
  483.85785 |                                                              0.000
  499.98645 |********************                                          0.038
  516.11504 |                                                              0.000
  532.24364 |                                                              0.000
  548.37223 |                                                              0.000
  564.50083 |                                                              0.000
  580.62942 |                                                              0.000
  596.75802 |                                                              0.000
  612.88661 |                                                              0.000
  629.01521 |                                                              0.000
  645.14380 |                                                              0.000
  661.27240 |                                                              0.000
  677.40099 |                                                              0.000
  693.52959 |                                                              0.000
  709.65818 |****************************************                      0.077
  725.78678 |                                                              0.000
  741.91537 |                                                              0.000
  758.04397 |                                                              0.000
  774.17256 |                                                              0.000
  790.30116 |                                                              0.000
  806.42975 |****************************************                      0.077
  822.55835 |********************                                          0.038
  838.68694 |                                                              0.000
  854.81554 |                                                              0.000
  870.94413 |                                                              0.000
  887.07273 |************************************************************  0.115
  903.20132 |********************                                          0.038
  919.32992 |                                                              0.000
  935.45851 |                                                              0.000
  951.58711 |                                                              0.000
  967.71570 |                                                              0.000
  983.84430 |                                                              0.000
  999.97289 |                                                              0.000
 1016.10149 |****************************************                      0.077
--------------------------------------------------------------------------------



  Time to end of optimisation =      36.0625 seconds


  Peak dynamic memory used =       4.01 MB 


  Timing analysis for GULP :

--------------------------------------------------------------------------------
  Task / Subroutine                                          Time (Seconds)
--------------------------------------------------------------------------------
  Calculation of reciprocal space energy and derivatives          1.1719
  Calculation of reciprocal space energy using symmetry           3.4375
  Calculation of real space energy and derivatives                9.7812
  Calculation of real space energy using symmetry                18.3125
  Calculation of three-body energy and derivatives                2.4219
  Sum of squares for fitting                                     29.3125
  Symmetry generation of equivalent positions                     0.1562
  Global summation overhead                                       0.0469
--------------------------------------------------------------------------------
  Total CPU time                                                 36.0625
--------------------------------------------------------------------------------


  Dump file written as example14.grs



  **** GULP has completed with 1 warning - beware! ****

  Job Finished at 21:50.38  7th December   2020                               

