********************************************************************************
*                       GENERAL UTILITY LATTICE PROGRAM                        *
*                                 Julian Gale                                  *
*                       Curtin Institute for Computation                       *
*                    School of Molecular and Life Sciences                     *
*                    Curtin University, Western Australia                      *
********************************************************************************
* Version = 5.2.0 * Last modified =  10th September 2020                       *
********************************************************************************
*  fit          - perform fitting run                                          *
*  optimise     - perform optimisation run after fitting                       *
*  simplex      - use the simplex algorithm for fitting                        *
*  conp         - constant pressure calculation                                *
*  property     - calculate properties for final geometry                      *
*  phonon       - calculate phonons for final geometry                         *
*  relax        - relax structure during fitting                               *
*  compare      - compare initial and final structures                         *
********************************************************************************

  Job Started  at 21:49.45  7th December   2020                               

  Number of CPUs =     1


  Total number of configurations input =      1

********************************************************************************
*  Input for Configuration =   1 : ex09                                        *
********************************************************************************

  Formula = MgO                                                         

  Number of irreducible atoms/shells =       3


  Total number atoms/shells =       3

  Dimensionality = 3               :  Bulk   


  Symmetry :

  Crystal family                   :  Cubic       
  Crystal class  (Groth - 1921)    :  Cubic Hexakisoctahedral              

  Space group (centrosymmetric)    :  F M 3 M         

  Patterson group                  :  F m -3 m 

  Cartesian lattice vectors (Angstroms) :

        0.000000    2.106000    2.106000
        2.106000    0.000000    2.106000
        2.106000    2.106000    0.000000

  Primitive cell parameters :            Full cell parameters :

  a =   2.9783    alpha =  60.0000       a =   4.2120    alpha =  90.0000
  b =   2.9783    beta  =  60.0000       b =   4.2120    beta  =  90.0000
  c =   2.9783    gamma =  60.0000       c =   4.2120    gamma =  90.0000

  Initial volumes (Angstroms**3):

  Primitive cell =          18.681214    Full cell =          74.724856

  Temperature of configuration =   0.00     K 

  Pressure of configuration =         0.000 GPa 

  Fractional coordinates of asymmetric unit :

--------------------------------------------------------------------------------
   No.  Atomic       x           y          z         Charge      Occupancy
        Label      (Frac)      (Frac)     (Frac)        (e)         (Frac)  
--------------------------------------------------------------------------------
      1 Mg    c    0.000000    0.000000    0.000000     2.00000    1.000000    
      2 O     c    0.500000    0.500000    0.500000     0.80000    1.000000    
      3 O     bs   0.500000    0.500000    0.500000    -2.80000    1.000000    
--------------------------------------------------------------------------------


  Constraints : 

--------------------------------------------------------------------------------
  Constraint no.      Unconstrained     Constrained    Coefficient    Offset
                         Variable         Variable
--------------------------------------------------------------------------------
           1              Strain 1        Strain 2       1.00000      0.0000
           2              Strain 1        Strain 3       1.00000      0.0000
--------------------------------------------------------------------------------

  Brillouin zone sampling points :

--------------------------------------------------------------------------------
  Point number          x          y          z            Weight
--------------------------------------------------------------------------------
        1           0.000000   0.000000   0.000000     1.00000000
--------------------------------------------------------------------------------


********************************************************************************
*  General input information                                                   *
********************************************************************************

  Species output for all configurations : 

--------------------------------------------------------------------------------
  Species    Type    Atomic    Atomic    Charge       Radii (Angs)     Library
                     Number     Mass       (e)     Cova   Ionic  VDW   Symbol
--------------------------------------------------------------------------------
    Mg       Core       12      24.31   2.000000   1.100  0.000  1.640          
    O        Core        8      16.00   0.800000   0.730  0.000  1.360          
    O        BShell      8       0.00  -2.800000   0.730  1.125  1.360          
--------------------------------------------------------------------------------


  Lattice summation method               =    Ewald          (3-D)
                                         =    Parry          (2-D)
                                         =    Saunders et al (1-D)
  Accuracy factor for lattice sums       =   12.000


  Analytic derivatives to be used

  Time limit = Infinity

  Maximum range for interatomic potentials =    100000.000000 Angstroms

  General interatomic potentials :

--------------------------------------------------------------------------------
Atom  Types   Potential      Parameter       Value         Units   Cutoffs(Ang)
  1     2                                                            Min /  Max 
--------------------------------------------------------------------------------
Mg   c O    s Buckingham    Buckingham A     25.869392    eV        0.000 10.000
                            Buckingham rho  0.30412400    Ang       
                            Buckingham C     0.0000000    eV*Ang^6  
--------------------------------------------------------------------------------
O    c O    s Spring (c-s)  Spring k 2       45.228027    eV*Ang^-2 0.000  0.800
                            Spring k 4       0.0000000    eV*Ang^-4 
--------------------------------------------------------------------------------
O    s O    s BSM           BSM force const  315.37106    eV*Ang^-2 0.000  0.100
                            BSM radius       1.2000000    Ang       
--------------------------------------------------------------------------------
O    s O    s Buckingham    Buckingham A     0.0000000    eV        0.000 10.000
                            Buckingham rho  0.30000000    Ang       
                            Buckingham C     36.000000    eV*Ang^6  
--------------------------------------------------------------------------------


  Number of variables   =    4
  Number of observables =    6

--------------------------------------------------------------------------------
   Observable no.  Type           Observable    Weight       Reference  Confign 
--------------------------------------------------------------------------------
          1        Elastic Const   298.000000        0.0100    1  1        1
          2        Elastic Const    95.000000        0.0100    1  2        1
          3        Elastic Const   152.000000        0.0100    4  4        1
          4        Static Di C       9.860000        1.0000    1  1        1
          5        High Freq DiC     2.960000        1.0000    1  1        1
          6        Structure         4.212000     1000.0000    a           1
--------------------------------------------------------------------------------

  Variables :

--------------------------------------------------------------------------------
     Parameter No.       Parameter Value          Parameter Type  Species
--------------------------------------------------------------------------------
             1                 25.869392          Buckingham A   
             2                  0.304124          Buckingham rho 
             3                 45.228027          Spring k 2     
             4                315.371060          BSM force const
--------------------------------------------------------------------------------

  Symmetry constraints used for fitting
  Simplex algorithm to be used in fitting

  Maximum no. of cycles   =       5000
  Maximum step size       =  1000.0000
  Tolerance on parameters =  0.0000100
  Tolerance on function   =  0.0000100
  Differencing interval   =  0.0001000

  Start of fitting :

  Cycle:      0  Sum sqs:            35.628851  CPU:    0.016
  Cycle:      1  Sum sqs:             0.638724  CPU:    0.609
  Cycle:      2  Sum sqs:             0.638123  CPU:    0.781
  Cycle:      3  Sum sqs:             0.638121  CPU:    0.891
  Cycle:      4  Sum sqs:             0.638115  CPU:    1.078
  Cycle:      5  Sum sqs:             0.638111  CPU:    1.203
  Cycle:      6  Sum sqs:             0.638109  CPU:    1.312
  Cycle:      7  Sum sqs:             0.638105  CPU:    1.734
  Cycle:      8  Sum sqs:             0.638105  CPU:    1.891


  **** Fit completed successfully ****


  Final sum of squares =             0.638105

  Final values of parameters :

--------------------------------------------------------------------------------
 Parameter No.    Parameter        Parameter      Parameter Type  Species
                  Original         Final                                 
--------------------------------------------------------------------------------
         1             25.869392        30.034873 Buckingham A   
         2              0.304124         0.304045 Buckingham rho 
         3             45.228027        44.170554 Spring k 2     
         4            315.371060       318.733756 BSM force const
--------------------------------------------------------------------------------


  Final values of residuals :

--------------------------------------------------------------------------------
   Observable no.  Type            Observable   Calculated    Residual  Error(%)
--------------------------------------------------------------------------------
          1        Elastic Const    298.00000    298.00534      0.00000    0.002
          2        Elastic Const     95.00000     94.99463      0.00000   -0.006
          3        Elastic Const    152.00000    159.26912      0.52840    4.782
          4        Static Di C        9.86000      9.79669      0.00401   -0.642
          5        High Freq DiC      2.96000      3.01723      0.00328    1.933
          6        Structure          4.21200      4.22212      0.10242    0.240
--------------------------------------------------------------------------------

  Comparison of initial and final observables :

--------------------------------------------------------------------------------
   Observable no.  Type            Observable   Initial       Final             
--------------------------------------------------------------------------------
          1        Elastic Const    298.00000    304.19868    298.00534
          2        Elastic Const     95.00000    105.75482     94.99463
          3        Elastic Const    152.00000    183.74682    159.26912
          4        Static Di C        9.86000     11.75383      9.79669
          5        High Freq DiC      2.96000      3.29157      3.01723
          6        Structure          4.21200      4.06948      4.22212
--------------------------------------------------------------------------------

  Maximum range for interatomic potentials =    100000.000000 Angstroms

  General interatomic potentials :

--------------------------------------------------------------------------------
Atom  Types   Potential      Parameter       Value         Units   Cutoffs(Ang)
  1     2                                                            Min /  Max 
--------------------------------------------------------------------------------
Mg   c O    s Buckingham    Buckingham A     30.034873    eV        0.000 10.000
                            Buckingham rho  0.30404487    Ang       
                            Buckingham C     0.0000000    eV*Ang^6  
--------------------------------------------------------------------------------
O    c O    s Spring (c-s)  Spring k 2       44.170554    eV*Ang^-2 0.000  0.800
                            Spring k 4       0.0000000    eV*Ang^-4 
--------------------------------------------------------------------------------
O    s O    s BSM           BSM force const  318.73376    eV*Ang^-2 0.000  0.100
                            BSM radius       1.2000000    Ang       
--------------------------------------------------------------------------------
O    s O    s Buckingham    Buckingham A     0.0000000    eV        0.000 10.000
                            Buckingham rho  0.30000000    Ang       
                            Buckingham C     36.000000    eV*Ang^6  
--------------------------------------------------------------------------------



  Total time to end of fitting =       1.8906 seconds

********************************************************************************
*  Output for configuration   1 : ex09                                         *
********************************************************************************


  Components of energy : 

--------------------------------------------------------------------------------
  Interatomic potentials     =           7.74680408 eV    
  Monopole - monopole (real) =          -4.34238722 eV    
  Monopole - monopole (recip)=         -43.45344934 eV    
  Monopole - monopole (total)=         -47.79583656 eV    
--------------------------------------------------------------------------------
  Total lattice energy : 
    Primitive unit cell      =         -40.04903249 eV    
    Non-primitive unit cell  =        -160.19612995 eV    
--------------------------------------------------------------------------------
  Total lattice energy (in kJmol-1): 
    Primitive unit cell      =           -3864.1194 kJ/(mole unit cells)
    Non-primitive unit cell  =          -15456.4777 kJ/(mole unit cells)
--------------------------------------------------------------------------------


  Number of variables =        2

  Maximum number of calculations  =          1000
  Maximum Hessian update interval =            10
  Maximum step size               =   1.000000000
  Maximum parameter tolerance     =   0.000010000
  Maximum function  tolerance     =   0.000010000
  Maximum gradient  tolerance     =   0.001000000
  Maximum gradient  component     =   0.010000000

  Symmetry constrained optimisation

  Symmetry used for second derivatives

  Cell parameters to be optimised using strains

  Newton-Raphson optimiser to be used

  BFGS hessian update to be used

  Lower half triangular hessian to be used

  Start of bulk optimisation :

  Cycle:      0 Energy:       -40.049032  Gnorm:      0.205743  CPU:    1.891
  ** Hessian calculated **
  Cycle:      1 Energy:       -40.049633  Gnorm:      0.000983  CPU:    1.891


  **** Optimisation achieved ****


  Final energy =     -40.04963349 eV
  Final Gnorm  =       0.00000026

  Components of energy : 

--------------------------------------------------------------------------------
  Interatomic potentials     =           7.63163801 eV    
  Monopole - monopole (real) =          -4.33197866 eV    
  Monopole - monopole (recip)=         -43.34929284 eV    
  Monopole - monopole (total)=         -47.68127150 eV    
--------------------------------------------------------------------------------
  Total lattice energy : 
    Primitive unit cell      =         -40.04963349 eV    
    Non-primitive unit cell  =        -160.19853396 eV    
--------------------------------------------------------------------------------
  Total lattice energy (in kJmol-1): 
    Primitive unit cell      =           -3864.1774 kJ/(mole unit cells)
    Non-primitive unit cell  =          -15456.7097 kJ/(mole unit cells)
--------------------------------------------------------------------------------

  Final asymmetric unit coordinates :

--------------------------------------------------------------------------------
   No.  Atomic        x           y           z         Radius
        Label       (Frac)      (Frac)      (Frac)       (Angs) 
--------------------------------------------------------------------------------
     1  Mg    c     0.000000    0.000000    0.000000    0.000000
     2  O     c     0.500000    0.500000    0.500000    0.000000
     3  O     bs    0.500000    0.500000    0.500000    1.126406
--------------------------------------------------------------------------------

  Final Cartesian lattice vectors (Angstroms) :

        0.000000    2.111060    2.111060
        2.111060    0.000000    2.111060
        2.111060    2.111060    0.000000


  Final cell parameters and derivatives :

--------------------------------------------------------------------------------
       a            2.985490 Angstrom     dE/de1(xx)    -0.000000 eV/strain
       b            2.985490 Angstrom     dE/de2(yy)     0.000000 eV/strain
       c            2.985490 Angstrom     dE/de3(zz)     0.000000 eV/strain
       alpha       60.000000 Degrees      dE/de4(yz)     0.000000 eV/strain
       beta        60.000000 Degrees      dE/de5(xz)     0.000000 eV/strain
       gamma       60.000000 Degrees      dE/de6(xy)     0.000000 eV/strain
--------------------------------------------------------------------------------

  Primitive cell volume =            18.816195 Angs**3

  Density of cell =      3.557435 g/cm**3

  Non-primitive lattice parameters :

  a    =     4.222120  b   =     4.222120  c    =     4.222120
  alpha=    90.000000  beta=    90.000000  gamma=    90.000000

  Non-primitive cell volume =            75.264782 Angs**3


  Final internal derivatives :

--------------------------------------------------------------------------------
   No.  Atomic          a             b             c           Radius
        Label          (eV)          (eV)          (eV)        (eV/Angs)
--------------------------------------------------------------------------------
      1 Mg    c       0.000000      0.000000      0.000000      0.000000
      2 O     c       0.000000      0.000000      0.000000      0.000000
      3 O     bs      0.000000      0.000000      0.000000     -0.000000
--------------------------------------------------------------------------------
  Maximum abs         0.000000      0.000000      0.000000      0.000000
--------------------------------------------------------------------------------

  Comparison of initial and final structures : 

--------------------------------------------------------------------------------
  Parameter   Initial value   Final value   Difference    Units      Percent
--------------------------------------------------------------------------------
    Volume        74.724856     75.264782     0.539925    Angs**3      0.72
    a              4.212000      4.222120     0.010120    Angstroms    0.24
    b              4.212000      4.222120     0.010120    Angstroms    0.24
    c              4.212000      4.222120     0.010120    Angstroms    0.24
    alpha         90.000000     90.000000     0.000000    Degrees      0.00
    beta          90.000000     90.000000     0.000000    Degrees      0.00
    gamma         90.000000     90.000000     0.000000    Degrees      0.00
      1 x          0.000000      0.000000     0.000000    Fractional   0.00
      1 y          0.000000      0.000000     0.000000    Fractional   0.00
      1 z          0.000000      0.000000     0.000000    Fractional   0.00
      2 x          0.500000      0.500000     0.000000    Fractional   0.00
      2 y          0.500000      0.500000     0.000000    Fractional   0.00
      2 z          0.500000      0.500000     0.000000    Fractional   0.00
      3 x          0.500000      0.500000     0.000000    Fractional   0.00
      3 y          0.500000      0.500000     0.000000    Fractional   0.00
      3 z          0.500000      0.500000     0.000000    Fractional   0.00
--------------------------------------------------------------------------------


  Born effective charge tensors : 

-------------------------------------------------------------------------------
  Atom             x           y             z
-------------------------------------------------------------------------------
    1 Mg    x       1.9711      0.0000     -0.0000
            y       0.0000      1.9711     -0.0000
            z      -0.0000     -0.0000      1.9711
-------------------------------------------------------------------------------
    2 O     x      -1.9711     -0.0000      0.0000
            y      -0.0000     -1.9711      0.0000
            z       0.0000      0.0000     -1.9711
-------------------------------------------------------------------------------




  Elastic Constant Matrix: (Units=GPa)

-------------------------------------------------------------------------------
  Indices      1         2         3         4         5         6    
-------------------------------------------------------------------------------
       1    298.0053   94.9946   94.9946   -0.0000   -0.0000   -0.0000
       2     94.9946  298.0053   94.9946   -0.0000   -0.0000   -0.0000
       3     94.9946   94.9946  298.0053   -0.0000    0.0000   -0.0000
       4     -0.0000   -0.0000   -0.0000  159.2691   -0.0000   -0.0000
       5     -0.0000   -0.0000    0.0000   -0.0000  159.2691    0.0000
       6     -0.0000   -0.0000   -0.0000   -0.0000    0.0000  159.2691
-------------------------------------------------------------------------------


  Elastic Compliance Matrix: (Units=1/GPa)

-------------------------------------------------------------------------------
  Indices      1         2         3         4         5         6    
-------------------------------------------------------------------------------
       1    0.003967 -0.000959 -0.000959  0.000000  0.000000  0.000000
       2   -0.000959  0.003967 -0.000959  0.000000  0.000000  0.000000
       3   -0.000959 -0.000959  0.003967  0.000000 -0.000000  0.000000
       4    0.000000  0.000000  0.000000  0.006279  0.000000  0.000000
       5    0.000000  0.000000 -0.000000  0.000000  0.006279 -0.000000
       6    0.000000  0.000000  0.000000  0.000000 -0.000000  0.006279
-------------------------------------------------------------------------------

  Mechanical properties :

-------------------------------------------------------------------------------
  Convention :                    Reuss         Voigt         Hill
-------------------------------------------------------------------------------
  Bulk  Modulus (GPa)     =     162.66487     162.66487     162.66487
  Shear Modulus (GPa)     =     129.73723     136.16361     132.95042
-------------------------------------------------------------------------------
  Velocity S-wave (km/s)  =       6.03898       6.18674       6.11331
  Velocity P-wave (km/s)  =       9.71345       9.83665       9.77524
-------------------------------------------------------------------------------
  Compressibility (1/GPa) =    0.00614761
-------------------------------------------------------------------------------
  Stress axis :                     x             y             z
-------------------------------------------------------------------------------
  Youngs Moduli (GPa)     =     252.08177     252.08177     252.08177
-------------------------------------------------------------------------------
  Poissons Ratio (x)      =                     0.24172       0.24172
  Poissons Ratio (y)      =       0.24172                     0.24172
  Poissons Ratio (z)      =       0.24172       0.24172
-------------------------------------------------------------------------------


  Piezoelectric Strain Matrix: (Units=C/m**2)

-------------------------------------------------------------------------------
  Indices      1         2         3         4         5         6    
-------------------------------------------------------------------------------
       x     0.00000   0.00000   0.00000   0.00000   0.00000   0.00000
       y     0.00000  -0.00000   0.00000   0.00000   0.00000   0.00000
       z     0.00000   0.00000  -0.00000   0.00000   0.00000   0.00000
-------------------------------------------------------------------------------


  Piezoelectric Stress Matrix: (Units=10**-11 C/N)

-------------------------------------------------------------------------------
  Indices      1         2         3         4         5         6    
-------------------------------------------------------------------------------
       x     0.00000   0.00000   0.00000   0.00000   0.00000   0.00000
       y     0.00000  -0.00000   0.00000   0.00000   0.00000   0.00000
       z     0.00000   0.00000  -0.00000   0.00000   0.00000   0.00000
-------------------------------------------------------------------------------


  Static dielectric constant tensor : 

-------------------------------------------------------------------------------
              x         y         z
-------------------------------------------------------------------------------
       x     9.79669   0.00000  -0.00000
       y     0.00000   9.79669  -0.00000
       z    -0.00000  -0.00000   9.79669
--------------------------------------------------------------------------------

  High frequency dielectric constant tensor : 

-------------------------------------------------------------------------------
              x         y         z
-------------------------------------------------------------------------------
       x     3.01723   0.00000  -0.00000
       y     0.00000   3.01723  -0.00000
       z    -0.00000  -0.00000   3.01723
-------------------------------------------------------------------------------

  Static refractive indices : 

-------------------------------------------------------------------------------
    1 =    3.12997      2 =    3.12997      3 =    3.12997
-------------------------------------------------------------------------------

  High frequency refractive indices : 

-------------------------------------------------------------------------------
    1 =    1.73702      2 =    1.73702      3 =    1.73702
-------------------------------------------------------------------------------


  Phonon Calculation : 

  Number of k points for this configuration =        1

--------------------------------------------------------------------------------
  K point      1 =   0.000000  0.000000  0.000000  Weight =    1.000
--------------------------------------------------------------------------------

  Frequencies (cm-1) [NB: Negative implies an imaginary mode]:

   -0.00   -0.00    0.00  394.10  394.10  394.10


--------------------------------------------------------------------------------
  Phonon properties (per mole of unit cells): Temperature =      0.000 K
--------------------------------------------------------------------------------
  Zero point energy            =        0.073293 eV
--------------------------------------------------------------------------------

  Time to end of optimisation =       1.8906 seconds


  Peak dynamic memory used =       1.81 MB 


  Timing analysis for GULP :

--------------------------------------------------------------------------------
  Task / Subroutine                                          Time (Seconds)
--------------------------------------------------------------------------------
  Calculation of reciprocal space energy and derivatives          0.0469
  Calculation of reciprocal space energy using symmetry           0.0312
  Calculation of real space energy and derivatives                0.3594
  Calculation of real space energy using symmetry                 1.2969
  Calculation of matrix inversion                                 0.0156
  Sum of squares for fitting                                      1.6250
  Symmetry generation of equivalent positions                     0.1094
--------------------------------------------------------------------------------
  Total CPU time                                                  1.8906
--------------------------------------------------------------------------------


  Dump file written as example9.grs


  Job Finished at 21:49.47  7th December   2020                               

