********************************************************************************
*                       GENERAL UTILITY LATTICE PROGRAM                        *
*                                 Julian Gale                                  *
*                       Curtin Institute for Computation                       *
*                    School of Molecular and Life Sciences                     *
*                    Curtin University, Western Australia                      *
********************************************************************************
* Version = 5.2.0 * Last modified =  10th September 2020                       *
********************************************************************************
*  fit          - perform fitting run                                          *
*  optimise     - perform optimisation run after fitting                       *
*  simplex      - use the simplex algorithm for fitting                        *
*  conp         - constant pressure calculation                                *
*  phonon       - calculate phonons for final geometry                         *
*  relax        - relax structure during fitting                               *
*  compare      - compare initial and final structures                         *
********************************************************************************

  Job Started  at 21:49.09  7th December   2020                               

  Number of CPUs =     1


  Total number of configurations input =      1

********************************************************************************
*  Input for Configuration =   1 : ex02                                        *
********************************************************************************

  Formula = Si3O6                                                       

  Number of irreducible atoms/shells =       3


  Total number atoms/shells =      15

  Dimensionality = 3               :  Bulk   


  Symmetry :

  Crystal family                   :  Hexagonal   
  Crystal class  (Groth - 1921)    :  Trigonal Trapezohedral               

  Space group (noncentrosymmetric) :  P 31 2 1        

  Patterson group                  :  P -3 m 1 

  Cartesian lattice vectors (Angstroms) :

        4.914730    0.000000    0.000000
       -2.457365    4.256281    0.000000
        0.000000    0.000000    5.406570

  Cell parameters (Angstroms/Degrees):

  a =       4.9147    alpha =  90.0000
  b =       4.9147    beta  =  90.0000
  c =       5.4066    gamma = 120.0000

  Initial cell volume =         113.097184 Angs**3

  Temperature of configuration =   0.00     K 

  Pressure of configuration =         0.000 GPa 

  Fractional coordinates of asymmetric unit :

--------------------------------------------------------------------------------
   No.  Atomic       x           y          z         Charge      Occupancy
        Label      (Frac)      (Frac)     (Frac)        (e)         (Frac)  
--------------------------------------------------------------------------------
      1 Si    c    0.468200 *  0.000000    0.333333     4.00000    1.000000    
      2 O     c    0.413100 *  0.266100 *  0.213100 *   0.86902    1.000000    
      3 O     s    0.431813 *  0.264902 *  0.204106 *  -2.86902    1.000000    
--------------------------------------------------------------------------------


  Constraints : 

--------------------------------------------------------------------------------
  Constraint no.      Unconstrained     Constrained    Coefficient    Offset
                         Variable         Variable
--------------------------------------------------------------------------------
           1              Strain 1        Strain 2       1.00000      0.0000
--------------------------------------------------------------------------------

  Brillouin zone sampling points :

--------------------------------------------------------------------------------
  Point number          x          y          z            Weight
--------------------------------------------------------------------------------
        1           0.000000   0.000000   0.000000     1.00000000
--------------------------------------------------------------------------------


********************************************************************************
*  General input information                                                   *
********************************************************************************

  Species output for all configurations : 

--------------------------------------------------------------------------------
  Species    Type    Atomic    Atomic    Charge       Radii (Angs)     Library
                     Number     Mass       (e)     Cova   Ionic  VDW   Symbol
--------------------------------------------------------------------------------
    Si       Core       14      28.09   4.000000   1.200  0.000  2.100          
    O        Core        8      16.00   0.869020   0.730  0.000  1.360          
    O        Shell       8       0.00  -2.869020   0.730  0.000  1.360          
--------------------------------------------------------------------------------


  Lattice summation method               =    Ewald          (3-D)
                                         =    Parry          (2-D)
                                         =    Saunders et al (1-D)
  Accuracy factor for lattice sums       =   12.000


  Analytic derivatives to be used

  Time limit = Infinity

  Maximum range for interatomic potentials =    100000.000000 Angstroms

  General interatomic potentials :

--------------------------------------------------------------------------------
Atom  Types   Potential      Parameter       Value         Units   Cutoffs(Ang)
  1     2                                                            Min /  Max 
--------------------------------------------------------------------------------
Si   c O    s General       General A        1283.0377    eV*Ang^m  0.000  8.000
                            General rho     0.32050000    Ang       
                            General C        10.660000    eV*Ang^n  
                            Exponent m         0          None
                            Exponent n         6          None
--------------------------------------------------------------------------------
O    s O    s Buckingham    Buckingham A     22764.000    eV        0.000  8.000
                            Buckingham rho  0.14900000    Ang       
                            Buckingham C     27.880000    eV*Ang^6  
--------------------------------------------------------------------------------
O    c O    s Spring (c-s)  Spring k 2       74.920000    eV*Ang^-2 0.000  0.800
                            Spring k 4       0.0000000    eV*Ang^-4 
--------------------------------------------------------------------------------

  Potentials with energy / gradient boundary corrections : 

--------------------------------------------------------------------------------
    Potential       Atom1   Atom2    Type of correction
--------------------------------------------------------------------------------
    General  0  6   Si    c O     s  Gradient
--------------------------------------------------------------------------------

  General Three-body potentials :

--------------------------------------------------------------------------------
  Atoms       Potential      Parameter       Value         Units   Cutoffs(Ang)
  1 / 2 / 3                                                          Min /  Max 
--------------------------------------------------------------------------------
Si    core    Harmonic      Three-body cnst  2.0972400    eV*rad^-2 0.000  1.800
O     shel                  Three-body angl  109.47000    degrees   0.000  1.800
O     shel                  Three-body k4    0.0000000    eV*rad^-4 0.000  3.200
                            Three-body k3    0.0000000    eV*rad^-3 
--------------------------------------------------------------------------------


  Number of variables   =    5
  Number of observables =    6

--------------------------------------------------------------------------------
   Observable no.  Type           Observable    Weight       Reference  Confign 
--------------------------------------------------------------------------------
          1        Structure         0.468200    10000.0000    1 x         1
          2        Structure         0.413100    10000.0000    2 x         1
          3        Structure         0.266100    10000.0000    2 y         1
          4        Structure         0.213100    10000.0000    2 z         1
          5        Structure         4.914730     1000.0000    a           1
          6        Structure         5.406570     1000.0000    c           1
--------------------------------------------------------------------------------

  Variables :

--------------------------------------------------------------------------------
     Parameter No.       Parameter Value          Parameter Type  Species
--------------------------------------------------------------------------------
             1               1283.037674          General A      
             2                  0.320500          General rho    
             3              22764.000000          Buckingham A   
             4                  0.149000          Buckingham rho 
             5                 74.920000          Spring k 2     
--------------------------------------------------------------------------------

  Symmetry constraints used for fitting
  Simplex algorithm to be used in fitting

  Maximum no. of cycles   =       5000
  Maximum step size       =  1000.0000
  Tolerance on parameters =  0.0000100
  Tolerance on function   =  0.0000100
  Differencing interval   =  0.0001000

  Start of fitting :

  Cycle:      0  Sum sqs:            12.315723  CPU:    0.016
  Cycle:      1  Sum sqs:             0.162682  CPU:    1.688
  Cycle:      2  Sum sqs:             0.153232  CPU:    2.672
  Cycle:      3  Sum sqs:             0.127521  CPU:    3.422
  Cycle:      4  Sum sqs:             0.123913  CPU:    3.766
  Cycle:      5  Sum sqs:             0.121668  CPU:    4.141
  Cycle:      6  Sum sqs:             0.121248  CPU:    4.391
  Cycle:      7  Sum sqs:             0.109554  CPU:   13.156
  Cycle:      8  Sum sqs:             0.109479  CPU:   13.703
  Cycle:      9  Sum sqs:             0.109344  CPU:   14.250
  Cycle:     10  Sum sqs:             0.108211  CPU:   16.031
  Cycle:     11  Sum sqs:             0.108155  CPU:   17.594
  Cycle:     12  Sum sqs:             0.108155  CPU:   18.875
  Cycle:     13  Sum sqs:             0.108155  CPU:   19.531
  Cycle:     14  Sum sqs:             0.107827  CPU:   20.312
  Cycle:     15  Sum sqs:             0.104582  CPU:   21.094
  Cycle:     16  Sum sqs:             0.102669  CPU:   22.797
  Cycle:     17  Sum sqs:             0.102024  CPU:   24.531


!!!!!!!!!!!!!!!!!!!!!!!!!!!!!!!!!!!!!!!!!!!!!!!!!!!!!!!!!!!!!!!!!!!!!!!!!!!!!!!!
!! ERROR : Largest core-shell distance exceeds cutoff of cuts
!!!!!!!!!!!!!!!!!!!!!!!!!!!!!!!!!!!!!!!!!!!!!!!!!!!!!!!!!!!!!!!!!!!!!!!!!!!!!!!!


  Largest core-shell distance =   0.9035 Angstroms


 Program terminated by processor     0 in            cutscheck

