********************************************************************************
*                       GENERAL UTILITY LATTICE PROGRAM                        *
*                                 Julian Gale                                  *
*                       Curtin Institute for Computation                       *
*                    School of Molecular and Life Sciences                     *
*                    Curtin University, Western Australia                      *
********************************************************************************
* Version = 5.2.0 * Last modified =  10th September 2020                       *
********************************************************************************
*  fit          - perform fitting run                                          *
*  optimise     - perform optimisation run after fitting                       *
*  simplex      - use the simplex algorithm for fitting                        *
*  conp         - constant pressure calculation                                *
*  c6           - use real and reciprocal space sum for C6 terms               *
*  property     - calculate properties for final geometry                      *
*  phonon       - calculate phonons for final geometry                         *
*  relax        - relax structure during fitting                               *
*  compare      - compare initial and final structures                         *
********************************************************************************

  Job Started  at 21:49.25  7th December   2020                               

  Number of CPUs =     1


  Total number of configurations input =      1

********************************************************************************
*  Input for Configuration =   1 : ex04                                        *
********************************************************************************

  Formula = La2O3                                                       

  Number of irreducible atoms/shells =       6


  Total number atoms/shells =      10

  Dimensionality = 3               :  Bulk   


  Symmetry :

  Crystal family                   :  Hexagonal   
  Crystal class  (Groth - 1921)    :  Ditrigonal Scalenohedral             

  Space group (centrosymmetric)    :  P -3 M 1        

  Patterson group                  :  P -3 m 1 

  Cartesian lattice vectors (Angstroms) :

        3.938000    0.000000    0.000000
       -1.969000    3.410408    0.000000
        0.000000    0.000000    6.128000

  Cell parameters (Angstroms/Degrees):

  a =       3.9380    alpha =  90.0000
  b =       3.9380    beta  =  90.0000
  c =       6.1280    gamma = 120.0000

  Initial cell volume =          82.300185 Angs**3

  Temperature of configuration =   0.00     K 

  Pressure of configuration =         0.000 GPa 

  Fractional coordinates of asymmetric unit :

--------------------------------------------------------------------------------
   No.  Atomic       x           y          z         Charge      Occupancy
        Label      (Frac)      (Frac)     (Frac)        (e)         (Frac)  
--------------------------------------------------------------------------------
      1 La    c    0.333333    0.666667    0.245000 *   9.00000    1.000000    
      2 O     c    0.000000    0.000000    0.000000     0.50000    1.000000    
      3 O     c    0.333333    0.666667    0.645000 *   0.50000    1.000000    
      4 La    s    0.333333    0.666667    0.245000 *  -6.00000    1.000000    
      5 O     s    0.000000    0.000000    0.000000    -2.50000    1.000000    
      6 O     s    0.333333    0.666667    0.645000 *  -2.50000    1.000000    
--------------------------------------------------------------------------------


  Constraints : 

--------------------------------------------------------------------------------
  Constraint no.      Unconstrained     Constrained    Coefficient    Offset
                         Variable         Variable
--------------------------------------------------------------------------------
           1              Strain 1        Strain 2       1.00000      0.0000
--------------------------------------------------------------------------------

  Brillouin zone sampling points :

--------------------------------------------------------------------------------
  Point number          x          y          z            Weight
--------------------------------------------------------------------------------
        1           0.000000   0.000000   0.000000     1.00000000
--------------------------------------------------------------------------------


********************************************************************************
*  General input information                                                   *
********************************************************************************

  Species output for all configurations : 

--------------------------------------------------------------------------------
  Species    Type    Atomic    Atomic    Charge       Radii (Angs)     Library
                     Number     Mass       (e)     Cova   Ionic  VDW   Symbol
--------------------------------------------------------------------------------
    La       Core       57     138.91   9.000000   1.870  0.000  2.790          
    La       Shell      57       0.00  -6.000000   1.870  0.000  2.790          
    O        Core        8      16.00   0.500000   0.730  0.000  1.360          
    O        Shell       8       0.00  -2.500000   0.730  0.000  1.360          
--------------------------------------------------------------------------------


  Lattice summation method               =    Ewald          (3-D)
                                         =    Parry          (2-D)
                                         =    Saunders et al (1-D)
  Accuracy factor for lattice sums       =   12.000


  Analytic derivatives to be used

  Time limit = Infinity

  Maximum range for interatomic potentials =    100000.000000 Angstroms

  C6 terms to be calculated in real and reciprocal space 

  General interatomic potentials :

--------------------------------------------------------------------------------
Atom  Types   Potential      Parameter       Value         Units   Cutoffs(Ang)
  1     2                                                            Min /  Max 
--------------------------------------------------------------------------------
O    s La   s Buckingham    Buckingham A     5700.5200    eV        0.000 24.000
                            Buckingham rho  0.29885000    Ang       
                            Buckingham C     38.936500    eV*Ang^6  
--------------------------------------------------------------------------------
O    s O    s Buckingham    Buckingham A     576.94000    eV        0.000 20.000
                            Buckingham rho  0.33536000    Ang       
                            Buckingham C     0.0000000    eV*Ang^6  
--------------------------------------------------------------------------------
La   s La   s Buckingham    Buckingham A     85791.740    eV        0.000 20.000
                            Buckingham rho  0.22030000    Ang       
                            Buckingham C     6.8630000    eV*Ang^6  
--------------------------------------------------------------------------------
La   c La   s Spring (c-s)  Spring k 2       460.00000    eV*Ang^-2 0.000  1.000
                            Spring k 4       0.0000000    eV*Ang^-4 
--------------------------------------------------------------------------------
O    c O    s Spring (c-s)  Spring k 2       27.000000    eV*Ang^-2 0.000  1.000
                            Spring k 4       0.0000000    eV*Ang^-4 
--------------------------------------------------------------------------------


  Number of variables   =    3
  Number of observables =    4

--------------------------------------------------------------------------------
   Observable no.  Type           Observable    Weight       Reference  Confign 
--------------------------------------------------------------------------------
          1        Structure         0.245000    10000.0000    1 z         1
          2        Structure         0.645000    10000.0000    3 z         1
          3        Structure         3.938000     1000.0000    a           1
          4        Structure         6.128000     1000.0000    c           1
--------------------------------------------------------------------------------

  Variables :

--------------------------------------------------------------------------------
     Parameter No.       Parameter Value          Parameter Type  Species
--------------------------------------------------------------------------------
             1               5700.520000          Buckingham A   
             2                576.940000          Buckingham A   
             3              85791.740000          Buckingham A   
--------------------------------------------------------------------------------

  Symmetry constraints used for fitting
  Simplex algorithm to be used in fitting

  Maximum no. of cycles   =       5000
  Maximum step size       =  1000.0000
  Tolerance on parameters =  0.0000100
  Tolerance on function   =  0.0000100
  Differencing interval   =  0.0001000

  Start of fitting :

  Cycle:      0  Sum sqs:             6.517465  CPU:    0.031
  Cycle:      1  Sum sqs:             0.589209  CPU:    3.516
  Cycle:      2  Sum sqs:             0.553131  CPU:    6.266
  Cycle:      3  Sum sqs:             0.553128  CPU:    6.641
  Cycle:      4  Sum sqs:             0.553128  CPU:    7.156
  Cycle:      5  Sum sqs:             0.553127  CPU:    8.734
  Cycle:      6  Sum sqs:             0.553127  CPU:    9.109


  **** Fit completed successfully ****


  Final sum of squares =             0.553127

  Final values of parameters :

--------------------------------------------------------------------------------
 Parameter No.    Parameter        Parameter      Parameter Type  Species
                  Original         Final                                 
--------------------------------------------------------------------------------
         1           5700.520000      5577.307365 Buckingham A   
         2            576.940000      1227.111673 Buckingham A   
         3          85791.740000         0.004198 Buckingham A   
--------------------------------------------------------------------------------


  Final values of residuals :

--------------------------------------------------------------------------------
   Observable no.  Type            Observable   Calculated    Residual  Error(%)
--------------------------------------------------------------------------------
          1        Structure          0.24500      0.24883      0.14673    1.563
          2        Structure          0.64500      0.63869      0.39878   -0.979
          3        Structure          3.93800      3.93630      0.00289   -0.043
          4        Structure          6.12800      6.13017      0.00473    0.035
--------------------------------------------------------------------------------

  Comparison of initial and final observables :

--------------------------------------------------------------------------------
   Observable no.  Type            Observable   Initial       Final             
--------------------------------------------------------------------------------
          1        Structure          0.24500      0.24858      0.24883
          2        Structure          0.64500      0.63406      0.63869
          3        Structure          3.93800      3.93048      3.93630
          4        Structure          6.12800      6.05633      6.13017
--------------------------------------------------------------------------------

  Maximum range for interatomic potentials =    100000.000000 Angstroms

  C6 terms to be calculated in real and reciprocal space 

  General interatomic potentials :

--------------------------------------------------------------------------------
Atom  Types   Potential      Parameter       Value         Units   Cutoffs(Ang)
  1     2                                                            Min /  Max 
--------------------------------------------------------------------------------
O    s La   s Buckingham    Buckingham A     5577.3074    eV        0.000 24.000
                            Buckingham rho  0.29885000    Ang       
                            Buckingham C     38.936500    eV*Ang^6  
--------------------------------------------------------------------------------
O    s O    s Buckingham    Buckingham A     1227.1117    eV        0.000 20.000
                            Buckingham rho  0.33536000    Ang       
                            Buckingham C     0.0000000    eV*Ang^6  
--------------------------------------------------------------------------------
La   s La   s Buckingham    Buckingham A    0.41980787E-02eV        0.000 20.000
                            Buckingham rho  0.22030000    Ang       
                            Buckingham C     6.8630000    eV*Ang^6  
--------------------------------------------------------------------------------
La   c La   s Spring (c-s)  Spring k 2       460.00000    eV*Ang^-2 0.000  1.000
                            Spring k 4       0.0000000    eV*Ang^-4 
--------------------------------------------------------------------------------
O    c O    s Spring (c-s)  Spring k 2       27.000000    eV*Ang^-2 0.000  1.000
                            Spring k 4       0.0000000    eV*Ang^-4 
--------------------------------------------------------------------------------



  Total time to end of fitting =       9.1250 seconds

********************************************************************************
*  Output for configuration   1 : ex04                                         *
********************************************************************************


  Components of energy : 

--------------------------------------------------------------------------------
  Interatomic potentials     =          20.18159394 eV    
  Monopole - monopole (real) =         -29.98384222 eV    
  Monopole - monopole (recip)=        -116.84800344 eV    
  Monopole - monopole (total)=        -146.83184566 eV    
  Dispersion (real+recip)    =          -2.49068436 eV    
--------------------------------------------------------------------------------
  Total lattice energy       =        -129.14093609 eV    
--------------------------------------------------------------------------------
  Total lattice energy       =          -12460.1262 kJ/(mole unit cells)
--------------------------------------------------------------------------------


  Number of variables =        6

  Maximum number of calculations  =          1000
  Maximum Hessian update interval =            10
  Maximum step size               =   1.000000000
  Maximum parameter tolerance     =   0.000010000
  Maximum function  tolerance     =   0.000010000
  Maximum gradient  tolerance     =   0.001000000
  Maximum gradient  component     =   0.010000000

  Symmetry constrained optimisation

  Symmetry used for second derivatives

  Cell parameters to be optimised using strains

  Newton-Raphson optimiser to be used

  BFGS hessian update to be used

  Lower half triangular hessian to be used

  Start of bulk optimisation :

  Cycle:      0 Energy:      -129.140936  Gnorm:     71.895155  CPU:    9.125
  ** Hessian calculated **
  Cycle:      1 Energy:      -130.150412  Gnorm:      1.168893  CPU:    9.125
  Cycle:      2 Energy:      -130.188829  Gnorm:      1.432143  CPU:    9.141
  Cycle:      3 Energy:      -130.192568  Gnorm:      0.245221  CPU:    9.141
  Cycle:      4 Energy:      -130.192726  Gnorm:      0.060506  CPU:    9.141


  **** Optimisation achieved ****


  Final energy =    -130.19272777 eV
  Final Gnorm  =       0.00066714

  Components of energy : 

--------------------------------------------------------------------------------
  Interatomic potentials     =          20.90530989 eV    
  Monopole - monopole (real) =         855.08704382 eV    
  Monopole - monopole (recip)=       -1003.72266942 eV    
  Monopole - monopole (total)=        -148.63562559 eV    
  Dispersion (real+recip)    =          -2.46241207 eV    
--------------------------------------------------------------------------------
  Total lattice energy       =        -130.19272777 eV    
--------------------------------------------------------------------------------
  Total lattice energy       =          -12561.6081 kJ/(mole unit cells)
--------------------------------------------------------------------------------

  Final asymmetric unit coordinates :

--------------------------------------------------------------------------------
   No.  Atomic        x           y           z         Radius
        Label       (Frac)      (Frac)      (Frac)       (Angs) 
--------------------------------------------------------------------------------
     1  La    c     0.333333    0.666667    0.248831    0.000000
     2  O     c     0.000000    0.000000    0.000000    0.000000
     3  O     c     0.333333    0.666667    0.638685    0.000000
     4  La    s     0.333333    0.666667    0.241068    0.000000
     5  O     s     0.000000    0.000000    0.000000    0.000000
     6  O     s     0.333333    0.666667    0.638099    0.000000
--------------------------------------------------------------------------------

  Final Cartesian lattice vectors (Angstroms) :

        3.936300    0.000000    0.000000
       -1.968150    3.408936    0.000000
        0.000000    0.000000    6.130175


  Final cell parameters and derivatives :

--------------------------------------------------------------------------------
       a            3.936300 Angstrom     dE/de1(xx)     0.000378 eV/strain
       b            3.936300 Angstrom     dE/de2(yy)     0.000000 eV/strain
       c            6.130175 Angstrom     dE/de3(zz)    -0.000137 eV/strain
       alpha       90.000000 Degrees      dE/de4(yz)     0.000000 eV/strain
       beta        90.000000 Degrees      dE/de5(xz)     0.000000 eV/strain
       gamma      120.000000 Degrees      dE/de6(xy)     0.000000 eV/strain
--------------------------------------------------------------------------------

  Primitive cell volume =            82.258328 Angs**3

  Density of cell =      6.577394 g/cm**3

  Non-primitive cell volume =            82.258328 Angs**3


  Final internal derivatives :

--------------------------------------------------------------------------------
   No.  Atomic          a             b             c           Radius
        Label          (eV)          (eV)          (eV)        (eV/Angs)
--------------------------------------------------------------------------------
      1 La    c       0.000000      0.000000     -0.002745      0.000000
      2 O     c       0.000000      0.000000      0.000000      0.000000
      3 O     c       0.000000      0.000000      0.001151      0.000000
      4 La    s       0.000000      0.000000      0.002543      0.000000
      5 O     s       0.000000      0.000000      0.000000      0.000000
      6 O     s       0.000000      0.000000     -0.000731      0.000000
--------------------------------------------------------------------------------
  Maximum abs         0.000000      0.000000      0.002745      0.000000
--------------------------------------------------------------------------------

  Comparison of initial and final structures : 

--------------------------------------------------------------------------------
  Parameter   Initial value   Final value   Difference    Units      Percent
--------------------------------------------------------------------------------
    Volume        82.300185     82.258328    -0.041857    Angs**3     -0.05
    a              3.938000      3.936300    -0.001700    Angstroms   -0.04
    b              3.938000      3.936300    -0.001700    Angstroms   -0.04
    c              6.128000      6.130175     0.002175    Angstroms    0.04
    alpha         90.000000     90.000000     0.000000    Degrees      0.00
    beta          90.000000     90.000000     0.000000    Degrees      0.00
    gamma        120.000000    120.000000     0.000000    Degrees      0.00
      1 x          0.333333      0.333333     0.000000    Fractional   0.00
      1 y          0.666667      0.666667     0.000000    Fractional   0.00
      1 z          0.245000      0.248831     0.003831    Fractional   1.56
      2 x          0.000000      0.000000     0.000000    Fractional   0.00
      2 y          0.000000      0.000000     0.000000    Fractional   0.00
      2 z          0.000000      0.000000     0.000000    Fractional   0.00
      3 x          0.333333      0.333333     0.000000    Fractional   0.00
      3 y          0.666667      0.666667     0.000000    Fractional   0.00
      3 z          0.645000      0.638685     0.006315    Fractional   0.98
      4 x          0.333333      0.333333     0.000000    Fractional   0.00
      4 y          0.666667      0.666667     0.000000    Fractional   0.00
      4 z          0.245000      0.241068     0.003932    Fractional   1.60
      5 x          0.000000      0.000000     0.000000    Fractional   0.00
      5 y          0.000000      0.000000     0.000000    Fractional   0.00
      5 z          0.000000      0.000000     0.000000    Fractional   0.00
      6 x          0.333333      0.333333     0.000000    Fractional   0.00
      6 y          0.666667      0.666667     0.000000    Fractional   0.00
      6 z          0.645000      0.638099     0.006901    Fractional   1.07
--------------------------------------------------------------------------------


  Born effective charge tensors : 

-------------------------------------------------------------------------------
  Atom             x           y             z
-------------------------------------------------------------------------------
    1 La    x       3.6074     -0.0000      0.0000
            y      -0.0000      3.6074     -0.0000
            z       0.0000     -0.0000      3.6968
-------------------------------------------------------------------------------
    2 O     x      -2.7815      0.0000      0.0000
            y       0.0000     -2.7815      0.0000
            z       0.0000     -0.0000     -2.7760
-------------------------------------------------------------------------------
    3 O     x      -2.2166     -0.0000     -0.0000
            y      -0.0000     -2.2166      0.0000
            z       0.0000      0.0000     -2.3088
-------------------------------------------------------------------------------




  Elastic Constant Matrix: (Units=GPa)

-------------------------------------------------------------------------------
  Indices      1         2         3         4         5         6    
-------------------------------------------------------------------------------
       1    317.3891  154.0870  124.4641   57.2371   -0.0000    0.0000
       2    154.0870  317.3891  124.4641  -57.2372    0.0000    0.0000
       3    124.4641  124.4641  214.0502   -0.0000   -0.0000    0.0000
       4     57.2371  -57.2372   -0.0000  112.2905    0.0000   -0.0000
       5     -0.0000    0.0000   -0.0000    0.0000  112.2905   57.2371
       6      0.0000    0.0000    0.0000   -0.0000   57.2371   81.6510
-------------------------------------------------------------------------------


  Elastic Compliance Matrix: (Units=1/GPa)

-------------------------------------------------------------------------------
  Indices      1         2         3         4         5         6    
-------------------------------------------------------------------------------
       1    0.006294 -0.003234 -0.001780 -0.004857  0.000000 -0.000000
       2   -0.003234  0.006294 -0.001780  0.004857 -0.000000  0.000000
       3   -0.001780 -0.001780  0.006741  0.000000 -0.000000  0.000000
       4   -0.004857  0.004857  0.000000  0.013857 -0.000000  0.000000
       5    0.000000 -0.000000 -0.000000 -0.000000  0.013857 -0.009713
       6   -0.000000  0.000000  0.000000  0.000000 -0.009713  0.019056
-------------------------------------------------------------------------------

  Mechanical properties :

-------------------------------------------------------------------------------
  Convention :                    Reuss         Voigt         Hill
-------------------------------------------------------------------------------
  Bulk  Modulus (GPa)     =     174.09368     183.87320     178.98344
  Shear Modulus (GPa)     =      61.27388      90.96729      76.12059
-------------------------------------------------------------------------------
  Velocity S-wave (km/s)  =       3.05218       3.71891       3.40192
  Velocity P-wave (km/s)  =       6.23615       6.81144       6.53013
-------------------------------------------------------------------------------
  Compressibility (1/GPa) =    0.00574403
-------------------------------------------------------------------------------
  Stress axis :                     x             y             z
-------------------------------------------------------------------------------
  Youngs Moduli (GPa)     =     158.87137     158.87137     148.33618
-------------------------------------------------------------------------------
  Poissons Ratio (x)      =                     0.51376       0.26399
  Poissons Ratio (y)      =       0.51376                     0.26399
  Poissons Ratio (z)      =       0.28274       0.28274
-------------------------------------------------------------------------------


  Piezoelectric Strain Matrix: (Units=C/m**2)

-------------------------------------------------------------------------------
  Indices      1         2         3         4         5         6    
-------------------------------------------------------------------------------
       x    -0.00000  -0.00000  -0.00000   0.00000  -0.00000   0.00000
       y     0.00000  -0.00000  -0.00000  -0.00000   0.00000  -0.00000
       z    -0.00000   0.00000  -0.00000  -0.00000  -0.00000   0.00000
-------------------------------------------------------------------------------


  Piezoelectric Stress Matrix: (Units=10**-11 C/N)

-------------------------------------------------------------------------------
  Indices      1         2         3         4         5         6    
-------------------------------------------------------------------------------
       x    -0.00000   0.00000  -0.00000   0.00000  -0.00000   0.00000
       y     0.00000  -0.00000   0.00000  -0.00000   0.00000  -0.00000
       z     0.00000   0.00000  -0.00000  -0.00000  -0.00000   0.00000
-------------------------------------------------------------------------------


  Static dielectric constant tensor : 

-------------------------------------------------------------------------------
              x         y         z
-------------------------------------------------------------------------------
       x    19.02967  -0.00000  -0.00000
       y    -0.00000  19.02968  -0.00000
       z    -0.00000  -0.00000  28.23982
--------------------------------------------------------------------------------

  High frequency dielectric constant tensor : 

-------------------------------------------------------------------------------
              x         y         z
-------------------------------------------------------------------------------
       x     3.88233   0.00000  -0.00000
       y     0.00000   3.88233   0.00000
       z    -0.00000   0.00000   3.89175
-------------------------------------------------------------------------------

  Static refractive indices : 

-------------------------------------------------------------------------------
    1 =    4.36230      2 =    4.36230      3 =    5.31411
-------------------------------------------------------------------------------

  High frequency refractive indices : 

-------------------------------------------------------------------------------
    1 =    1.97036      2 =    1.97036      3 =    1.97275
-------------------------------------------------------------------------------


  Phonon Calculation : 

  Number of k points for this configuration =        1

--------------------------------------------------------------------------------
  K point      1 =   0.000000  0.000000  0.000000  Weight =    1.000
--------------------------------------------------------------------------------

  Frequencies (cm-1) [NB: Negative implies an imaginary mode]:

   -0.00   -0.00   -0.00  125.29  125.29  180.31  213.88  213.88  240.86
  394.28  394.28  416.77  416.77  431.02  452.01


--------------------------------------------------------------------------------
  Phonon properties (per mole of unit cells): Temperature =      0.000 K
--------------------------------------------------------------------------------
  Zero point energy            =        0.223462 eV
--------------------------------------------------------------------------------

  Phonon density of states : 

--------------------------------------------------------------------------------
 Frequency (cm-1) Density of States                                             
--------------------------------------------------------------------------------
    0.00000 |                                                              0.000
    7.06260 |                                                              0.000
   14.12520 |                                                              0.000
   21.18780 |                                                              0.000
   28.25040 |                                                              0.000
   35.31300 |                                                              0.000
   42.37559 |                                                              0.000
   49.43819 |                                                              0.000
   56.50079 |                                                              0.000
   63.56339 |                                                              0.000
   70.62599 |                                                              0.000
   77.68859 |                                                              0.000
   84.75119 |                                                              0.000
   91.81379 |                                                              0.000
   98.87639 |                                                              0.000
  105.93899 |                                                              0.000
  113.00159 |                                                              0.000
  120.06418 |************************************************************  0.167
  127.12678 |                                                              0.000
  134.18938 |                                                              0.000
  141.25198 |                                                              0.000
  148.31458 |                                                              0.000
  155.37718 |                                                              0.000
  162.43978 |                                                              0.000
  169.50238 |                                                              0.000
  176.56498 |******************************                                0.083
  183.62758 |                                                              0.000
  190.69018 |                                                              0.000
  197.75278 |                                                              0.000
  204.81537 |                                                              0.000
  211.87797 |************************************************************  0.167
  218.94057 |                                                              0.000
  226.00317 |                                                              0.000
  233.06577 |                                                              0.000
  240.12837 |******************************                                0.083
  247.19097 |                                                              0.000
  254.25357 |                                                              0.000
  261.31617 |                                                              0.000
  268.37877 |                                                              0.000
  275.44137 |                                                              0.000
  282.50396 |                                                              0.000
  289.56656 |                                                              0.000
  296.62916 |                                                              0.000
  303.69176 |                                                              0.000
  310.75436 |                                                              0.000
  317.81696 |                                                              0.000
  324.87956 |                                                              0.000
  331.94216 |                                                              0.000
  339.00476 |                                                              0.000
  346.06736 |                                                              0.000
  353.12996 |                                                              0.000
  360.19255 |                                                              0.000
  367.25515 |                                                              0.000
  374.31775 |                                                              0.000
  381.38035 |                                                              0.000
  388.44295 |************************************************************  0.167
  395.50555 |                                                              0.000
  402.56815 |                                                              0.000
  409.63075 |                                                              0.000
  416.69335 |************************************************************  0.167
  423.75595 |                                                              0.000
  430.81855 |******************************                                0.083
  437.88114 |                                                              0.000
  444.94374 |******************************                                0.083
--------------------------------------------------------------------------------



  Time to end of optimisation =       9.1406 seconds


  Peak dynamic memory used =       1.84 MB 


  Timing analysis for GULP :

--------------------------------------------------------------------------------
  Task / Subroutine                                          Time (Seconds)
--------------------------------------------------------------------------------
  Calculation of reciprocal space energy and derivatives          0.2812
  Calculation of reciprocal space energy using symmetry           1.5156
  Calculation of real space energy and derivatives                0.7344
  Calculation of real space energy using symmetry                 6.4062
  Calculation of matrix inversion                                 0.0156
  Sum of squares for fitting                                      8.7500
  Symmetry generation of equivalent positions                     0.0469
  Global summation overhead                                       0.0312
--------------------------------------------------------------------------------
  Total CPU time                                                  9.1406
--------------------------------------------------------------------------------


  Dump file written as example4.grs


  Job Finished at 21:49.34  7th December   2020                               

