********************************************************************************
*                       GENERAL UTILITY LATTICE PROGRAM                        *
*                                 Julian Gale                                  *
*                       Curtin Institute for Computation                       *
*                    School of Molecular and Life Sciences                     *
*                    Curtin University, Western Australia                      *
********************************************************************************
* Version = 5.2.0 * Last modified =  11th May 2020                             *
********************************************************************************
*  optimise     - perform optimisation run                                     *
*  conp         - constant pressure calculation                                *
*  c6           - use real and reciprocal space sum for C6 terms               *
*  property     - calculate properties for final geometry                      *
*  phonon       - calculate phonons for final geometry                         *
*  compare      - compare initial and final structures                         *
********************************************************************************

  Job Started  at 01:23.24 26th February   2021                               

  Number of CPUs =     1


  Total number of configurations input =      1

********************************************************************************
*  Input for Configuration =   1 : ex04                                        *
********************************************************************************

  Formula = La2O3                                                       

  Number of irreducible atoms/shells =       6


  Total number atoms/shells =      10

  Dimensionality = 3               :  Bulk   


  Symmetry :

  Crystal family                   :  Hexagonal   
  Crystal class  (Groth - 1921)    :  Ditrigonal Scalenohedral             

  Space group (centrosymmetric)    :  P -3 M 1        

  Patterson group                  :  P -3 m 1 

  Cartesian lattice vectors (Angstroms) :

        3.938000    0.000000    0.000000
       -1.969000    3.410408    0.000000
        0.000000    0.000000    6.128000

  Cell parameters (Angstroms/Degrees):

  a =       3.9380    alpha =  90.0000
  b =       3.9380    beta  =  90.0000
  c =       6.1280    gamma = 120.0000

  Initial cell volume =          82.300185 Angs**3

  Temperature of configuration =   0.00     K 

  Pressure of configuration =         0.000 GPa 

  Fractional coordinates of asymmetric unit :

--------------------------------------------------------------------------------
   No.  Atomic       x           y          z         Charge      Occupancy
        Label      (Frac)      (Frac)     (Frac)        (e)         (Frac)  
--------------------------------------------------------------------------------
      1 La    c    0.333333    0.666667    0.245000 *   9.00000    1.000000    
      2 O     c    0.000000    0.000000    0.000000     0.50000    1.000000    
      3 O     c    0.333333    0.666667    0.645000 *   0.50000    1.000000    
      4 La    s    0.333333    0.666667    0.245000 *  -6.00000    1.000000    
      5 O     s    0.000000    0.000000    0.000000    -2.50000    1.000000    
      6 O     s    0.333333    0.666667    0.645000 *  -2.50000    1.000000    
--------------------------------------------------------------------------------


  Constraints : 

--------------------------------------------------------------------------------
  Constraint no.      Unconstrained     Constrained    Coefficient    Offset
                         Variable         Variable
--------------------------------------------------------------------------------
           1              Strain 1        Strain 2       1.00000      0.0000
--------------------------------------------------------------------------------

  Brillouin zone sampling points :

--------------------------------------------------------------------------------
  Point number          x          y          z            Weight
--------------------------------------------------------------------------------
        1           0.000000   0.000000   0.000000     1.00000000
--------------------------------------------------------------------------------


********************************************************************************
*  General input information                                                   *
********************************************************************************

  Species output for all configurations : 

--------------------------------------------------------------------------------
  Species    Type    Atomic    Atomic    Charge       Radii (Angs)     Library
                     Number     Mass       (e)     Cova   Ionic  VDW   Symbol
--------------------------------------------------------------------------------
    La       Core       57     138.91   9.000000   1.870  0.000  2.790          
    La       Shell      57       0.00  -6.000000   1.870  0.000  2.790          
    O        Core        8      16.00   0.500000   0.730  0.000  1.360          
    O        Shell       8       0.00  -2.500000   0.730  0.000  1.360          
--------------------------------------------------------------------------------


  Lattice summation method               =    Ewald          (3-D)
                                         =    Parry          (2-D)
                                         =    Saunders et al (1-D)
  Accuracy factor for lattice sums       =   12.000


  Analytic derivatives to be used

  Time limit = Infinity

  Maximum range for interatomic potentials =    100000.000000 Angstroms

  C6 terms to be calculated in real and reciprocal space 

  General interatomic potentials :

--------------------------------------------------------------------------------
Atom  Types   Potential      Parameter       Value         Units   Cutoffs(Ang)
  1     2                                                            Min /  Max 
--------------------------------------------------------------------------------
O    s La   s Buckingham    Buckingham A     5880.3185    eV        0.000 24.000
                            Buckingham rho  0.29885000    Ang       
                            Buckingham C     38.936500    eV*Ang^6  
--------------------------------------------------------------------------------
O    s O    s Buckingham    Buckingham A     578.97490    eV        0.000 20.000
                            Buckingham rho  0.33536000    Ang       
                            Buckingham C     0.0000000    eV*Ang^6  
--------------------------------------------------------------------------------
La   s La   s Buckingham    Buckingham A     99989.775    eV        0.000 20.000
                            Buckingham rho  0.22030000    Ang       
                            Buckingham C     6.8630000    eV*Ang^6  
--------------------------------------------------------------------------------
La   c La   s Spring (c-s)  Spring k 2       460.00000    eV*Ang^-2 0.000  1.000
                            Spring k 4       0.0000000    eV*Ang^-4 
--------------------------------------------------------------------------------
O    c O    s Spring (c-s)  Spring k 2       27.000000    eV*Ang^-2 0.000  1.000
                            Spring k 4       0.0000000    eV*Ang^-4 
--------------------------------------------------------------------------------

********************************************************************************
*  Output for configuration   1 : ex04                                         *
********************************************************************************


  Components of energy : 

--------------------------------------------------------------------------------
  Interatomic potentials     =          20.49326609 eV    
  Monopole - monopole (real) =         -29.98384222 eV    
  Monopole - monopole (recip)=        -116.84800344 eV    
  Monopole - monopole (total)=        -146.83184566 eV    
  Dispersion (real+recip)    =          -2.49068436 eV    
--------------------------------------------------------------------------------
  Total lattice energy       =        -128.82926394 eV    
--------------------------------------------------------------------------------
  Total lattice energy       =          -12430.0546 kJ/(mole unit cells)
--------------------------------------------------------------------------------


  Number of variables =        6

  Maximum number of calculations  =          1000
  Maximum Hessian update interval =            10
  Maximum step size               =   1.000000000
  Maximum parameter tolerance     =   0.000010000
  Maximum function  tolerance     =   0.000010000
  Maximum gradient  tolerance     =   0.001000000
  Maximum gradient  component     =   0.010000000

  Symmetry constrained optimisation

  Symmetry used for second derivatives

  Cell parameters to be optimised using strains

  Newton-Raphson optimiser to be used

  BFGS hessian update to be used

  Lower half triangular hessian to be used

  Start of bulk optimisation :

  Cycle:      0 Energy:      -128.829264  Gnorm:     72.362257  CPU:    0.068
  ** Hessian calculated **
  Cycle:      1 Energy:      -129.878106  Gnorm:      1.269262  CPU:    0.072
  Cycle:      2 Energy:      -129.946860  Gnorm:      1.479869  CPU:    0.076
  Cycle:      3 Energy:      -129.953509  Gnorm:      0.558525  CPU:    0.080
  Cycle:      4 Energy:      -129.953676  Gnorm:      0.052018  CPU:    0.084


  **** Optimisation achieved ****


  Final energy =    -129.95367808 eV
  Final Gnorm  =       0.00089665

  Components of energy : 

--------------------------------------------------------------------------------
  Interatomic potentials     =          21.24007703 eV    
  Monopole - monopole (real) =         854.78931846 eV    
  Monopole - monopole (recip)=       -1003.53680155 eV    
  Monopole - monopole (total)=        -148.74748308 eV    
  Dispersion (real+recip)    =          -2.44627203 eV    
--------------------------------------------------------------------------------
  Total lattice energy       =        -129.95367808 eV    
--------------------------------------------------------------------------------
  Total lattice energy       =          -12538.5434 kJ/(mole unit cells)
--------------------------------------------------------------------------------

  Final asymmetric unit coordinates :

--------------------------------------------------------------------------------
   No.  Atomic        x           y           z         Radius
        Label       (Frac)      (Frac)      (Frac)       (Angs) 
--------------------------------------------------------------------------------
     1  La    c     0.333333    0.666667    0.248331    0.000000
     2  O     c     0.000000    0.000000    0.000000    0.000000
     3  O     c     0.333333    0.666667    0.634489    0.000000
     4  La    s     0.333333    0.666667    0.239595    0.000000
     5  O     s     0.000000    0.000000    0.000000    0.000000
     6  O     s     0.333333    0.666667    0.633229    0.000000
--------------------------------------------------------------------------------

  Final Cartesian lattice vectors (Angstroms) :

        3.950604    0.000000    0.000000
       -1.975302    3.421324    0.000000
        0.000000    0.000000    6.088954


  Final cell parameters and derivatives :

--------------------------------------------------------------------------------
       a            3.950604 Angstrom     dE/de1(xx)     0.000487 eV/strain
       b            3.950604 Angstrom     dE/de2(yy)     0.000000 eV/strain
       c            6.088954 Angstrom     dE/de3(zz)    -0.000561 eV/strain
       alpha       90.000000 Degrees      dE/de4(yz)     0.000000 eV/strain
       beta        90.000000 Degrees      dE/de5(xz)     0.000000 eV/strain
       gamma      120.000000 Degrees      dE/de6(xy)     0.000000 eV/strain
--------------------------------------------------------------------------------

  Primitive cell volume =            82.300114 Angs**3

  Density of cell =      6.574055 g/cm**3

  Non-primitive cell volume =            82.300114 Angs**3


  Final internal derivatives :

--------------------------------------------------------------------------------
   No.  Atomic          a             b             c           Radius
        Label          (eV)          (eV)          (eV)        (eV/Angs)
--------------------------------------------------------------------------------
      1 La    c       0.000000      0.000000     -0.003137      0.000000
      2 O     c       0.000000      0.000000      0.000000      0.000000
      3 O     c       0.000000      0.000000      0.000959      0.000000
      4 La    s       0.000000      0.000000      0.004070      0.000000
      5 O     s       0.000000      0.000000      0.000000      0.000000
      6 O     s       0.000000      0.000000     -0.001035      0.000000
--------------------------------------------------------------------------------
  Maximum abs         0.000000      0.000000      0.004070      0.000000
--------------------------------------------------------------------------------

  Comparison of initial and final structures : 

--------------------------------------------------------------------------------
  Parameter   Initial value   Final value   Difference    Units      Percent
--------------------------------------------------------------------------------
    Volume        82.300185     82.300114    -0.000071    Angs**3     -0.00
    a              3.938000      3.950604     0.012604    Angstroms    0.32
    b              3.938000      3.950604     0.012604    Angstroms    0.32
    c              6.128000      6.088954    -0.039046    Angstroms   -0.64
    alpha         90.000000     90.000000     0.000000    Degrees      0.00
    beta          90.000000     90.000000     0.000000    Degrees      0.00
    gamma        120.000000    120.000000     0.000000    Degrees      0.00
      1 x          0.333333      0.333333     0.000000    Fractional   0.00
      1 y          0.666667      0.666667     0.000000    Fractional   0.00
      1 z          0.245000      0.248331     0.003331    Fractional   1.36
      2 x          0.000000      0.000000     0.000000    Fractional   0.00
      2 y          0.000000      0.000000     0.000000    Fractional   0.00
      2 z          0.000000      0.000000     0.000000    Fractional   0.00
      3 x          0.333333      0.333333     0.000000    Fractional   0.00
      3 y          0.666667      0.666667     0.000000    Fractional   0.00
      3 z          0.645000      0.634489     0.010511    Fractional   1.63
      4 x          0.333333      0.333333     0.000000    Fractional   0.00
      4 y          0.666667      0.666667     0.000000    Fractional   0.00
      4 z          0.245000      0.239595     0.005405    Fractional   2.21
      5 x          0.000000      0.000000     0.000000    Fractional   0.00
      5 y          0.000000      0.000000     0.000000    Fractional   0.00
      5 z          0.000000      0.000000     0.000000    Fractional   0.00
      6 x          0.333333      0.333333     0.000000    Fractional   0.00
      6 y          0.666667      0.666667     0.000000    Fractional   0.00
      6 z          0.645000      0.633229     0.011771    Fractional   1.82
--------------------------------------------------------------------------------


  Born effective charge tensors : 

-------------------------------------------------------------------------------
  Atom             x           y             z
-------------------------------------------------------------------------------
    1 La    x       3.4766     -0.0000      0.0000
            y      -0.0000      3.4766     -0.0000
            z       0.0000     -0.0000      3.6680
-------------------------------------------------------------------------------
    2 O     x      -2.6844      0.0000      0.0000
            y       0.0000     -2.6844     -0.0000
            z       0.0000     -0.0000     -2.7633
-------------------------------------------------------------------------------
    3 O     x      -2.1344     -0.0000     -0.0000
            y      -0.0000     -2.1344      0.0000
            z       0.0000      0.0000     -2.2864
-------------------------------------------------------------------------------




  Elastic Constant Matrix: (Units=GPa)

-------------------------------------------------------------------------------
  Indices      1         2         3         4         5         6    
-------------------------------------------------------------------------------
       1    316.0106  151.5688  118.7695   41.8197   -0.0000    0.0000
       2    151.5688  316.0106  118.7695  -41.8197   -0.0000    0.0000
       3    118.7695  118.7695  220.4296   -0.0000   -0.0000    0.0000
       4     41.8197  -41.8197   -0.0000  113.0576    0.0000   -0.0000
       5     -0.0000   -0.0000   -0.0000    0.0000  113.0576   41.8197
       6      0.0000    0.0000    0.0000   -0.0000   41.8197   82.2209
-------------------------------------------------------------------------------


  Elastic Compliance Matrix: (Units=1/GPa)

-------------------------------------------------------------------------------
  Indices      1         2         3         4         5         6    
-------------------------------------------------------------------------------
       1    0.005218 -0.002273 -0.001587 -0.002771  0.000000 -0.000000
       2   -0.002273  0.005218 -0.001587  0.002771 -0.000000  0.000000
       3   -0.001587 -0.001587  0.006246  0.000000 -0.000000 -0.000000
       4   -0.002771  0.002771  0.000000  0.010895 -0.000000  0.000000
       5    0.000000 -0.000000 -0.000000 -0.000000  0.010895 -0.005541
       6   -0.000000  0.000000 -0.000000  0.000000 -0.005541  0.014981
-------------------------------------------------------------------------------

  Mechanical properties :

-------------------------------------------------------------------------------
  Convention :                    Reuss         Voigt         Hill
-------------------------------------------------------------------------------
  Bulk  Modulus (GPa)     =     172.73366     181.18518     176.95942
  Shear Modulus (GPa)     =      75.44439      92.55675      84.00057
-------------------------------------------------------------------------------
  Velocity S-wave (km/s)  =       3.38764       3.75221       3.57458
  Velocity P-wave (km/s)  =       6.44798       6.80682       6.62983
-------------------------------------------------------------------------------
  Compressibility (1/GPa) =    0.00578926
-------------------------------------------------------------------------------
  Stress axis :                     x             y             z
-------------------------------------------------------------------------------
  Youngs Moduli (GPa)     =     191.66009     191.66010     160.09249
-------------------------------------------------------------------------------
  Poissons Ratio (x)      =                     0.43562       0.25401
  Poissons Ratio (y)      =       0.43562                     0.25401
  Poissons Ratio (z)      =       0.30410       0.30410
-------------------------------------------------------------------------------


  Piezoelectric Strain Matrix: (Units=C/m**2)

-------------------------------------------------------------------------------
  Indices      1         2         3         4         5         6    
-------------------------------------------------------------------------------
       x    -0.00000  -0.00000  -0.00000   0.00000  -0.00000   0.00000
       y     0.00000  -0.00000   0.00000  -0.00000   0.00000  -0.00000
       z     0.00000   0.00000  -0.00000  -0.00000  -0.00000   0.00000
-------------------------------------------------------------------------------


  Piezoelectric Stress Matrix: (Units=10**-11 C/N)

-------------------------------------------------------------------------------
  Indices      1         2         3         4         5         6    
-------------------------------------------------------------------------------
       x    -0.00000   0.00000  -0.00000   0.00000  -0.00000   0.00000
       y     0.00000  -0.00000   0.00000  -0.00000   0.00000  -0.00000
       z     0.00000   0.00000  -0.00000  -0.00000  -0.00000   0.00000
-------------------------------------------------------------------------------


  Static dielectric constant tensor : 

-------------------------------------------------------------------------------
              x         y         z
-------------------------------------------------------------------------------
       x    15.13877  -0.00000  -0.00000
       y    -0.00000  15.13877  -0.00000
       z    -0.00000  -0.00000  21.23144
--------------------------------------------------------------------------------

  High frequency dielectric constant tensor : 

-------------------------------------------------------------------------------
              x         y         z
-------------------------------------------------------------------------------
       x     3.79525   0.00000  -0.00000
       y     0.00000   3.79525   0.00000
       z    -0.00000   0.00000   3.92169
-------------------------------------------------------------------------------

  Static refractive indices : 

-------------------------------------------------------------------------------
    1 =    3.89086      2 =    3.89086      3 =    4.60776
-------------------------------------------------------------------------------

  High frequency refractive indices : 

-------------------------------------------------------------------------------
    1 =    1.94814      2 =    1.94814      3 =    1.98033
-------------------------------------------------------------------------------


  Phonon Calculation : 

  Number of k points for this configuration =        1

--------------------------------------------------------------------------------
  K point      1 =   0.000000  0.000000  0.000000  Weight =    1.000
--------------------------------------------------------------------------------

  Frequencies (cm-1) [NB: Negative implies an imaginary mode]:

   -0.00   -0.00    0.00  131.84  131.84  210.48  238.69  238.69  258.64
  390.28  390.28  402.08  402.08  423.42  453.16


--------------------------------------------------------------------------------
  Phonon properties (per mole of unit cells): Temperature =      0.000 K
--------------------------------------------------------------------------------
  Zero point energy            =        0.227605 eV
--------------------------------------------------------------------------------

  Phonon density of states : 

--------------------------------------------------------------------------------
 Frequency (cm-1) Density of States                                             
--------------------------------------------------------------------------------
    0.00000 |******************************                                0.077
    7.08067 |                                                              0.000
   14.16134 |                                                              0.000
   21.24202 |                                                              0.000
   28.32269 |                                                              0.000
   35.40336 |                                                              0.000
   42.48403 |                                                              0.000
   49.56471 |                                                              0.000
   56.64538 |                                                              0.000
   63.72605 |                                                              0.000
   70.80672 |                                                              0.000
   77.88740 |                                                              0.000
   84.96807 |                                                              0.000
   92.04874 |                                                              0.000
   99.12941 |                                                              0.000
  106.21008 |                                                              0.000
  113.29076 |                                                              0.000
  120.37143 |                                                              0.000
  127.45210 |************************************************************  0.154
  134.53277 |                                                              0.000
  141.61345 |                                                              0.000
  148.69412 |                                                              0.000
  155.77479 |                                                              0.000
  162.85546 |                                                              0.000
  169.93613 |                                                              0.000
  177.01681 |                                                              0.000
  184.09748 |                                                              0.000
  191.17815 |                                                              0.000
  198.25882 |                                                              0.000
  205.33950 |******************************                                0.077
  212.42017 |                                                              0.000
  219.50084 |                                                              0.000
  226.58151 |                                                              0.000
  233.66219 |************************************************************  0.154
  240.74286 |                                                              0.000
  247.82353 |                                                              0.000
  254.90420 |******************************                                0.077
  261.98487 |                                                              0.000
  269.06555 |                                                              0.000
  276.14622 |                                                              0.000
  283.22689 |                                                              0.000
  290.30756 |                                                              0.000
  297.38824 |                                                              0.000
  304.46891 |                                                              0.000
  311.54958 |                                                              0.000
  318.63025 |                                                              0.000
  325.71093 |                                                              0.000
  332.79160 |                                                              0.000
  339.87227 |                                                              0.000
  346.95294 |                                                              0.000
  354.03361 |                                                              0.000
  361.11429 |                                                              0.000
  368.19496 |                                                              0.000
  375.27563 |                                                              0.000
  382.35630 |                                                              0.000
  389.43698 |************************************************************  0.154
  396.51765 |************************************************************  0.154
  403.59832 |                                                              0.000
  410.67899 |                                                              0.000
  417.75966 |******************************                                0.077
  424.84034 |                                                              0.000
  431.92101 |                                                              0.000
  439.00168 |                                                              0.000
  446.08235 |******************************                                0.077
--------------------------------------------------------------------------------



  Time to end of optimisation =       0.1058 seconds


  Peak dynamic memory used =       1.84 MB 


  Timing analysis for GULP :

--------------------------------------------------------------------------------
  Task / Subroutine                                          Time (Seconds)
--------------------------------------------------------------------------------
  Calculation of reciprocal space energy and derivatives          0.0024
  Calculation of reciprocal space energy using symmetry           0.0056
  Calculation of real space energy and derivatives                0.0069
  Calculation of real space energy using symmetry                 0.0212
  Calculation of phonons                                          0.0031
  Symmetry generation of equivalent positions                     0.0033
--------------------------------------------------------------------------------
  Total CPU time                                                  0.1058
--------------------------------------------------------------------------------


  Dump file written as example4.grs


  Job Finished at 01:23.24 26th February   2021                               

