********************************************************************************
*                       GENERAL UTILITY LATTICE PROGRAM                        *
*                                 Julian Gale                                  *
*                       Curtin Institute for Computation                       *
*                    School of Molecular and Life Sciences                     *
*                    Curtin University, Western Australia                      *
********************************************************************************
* Version = 5.2.0 * Last modified =  11th May 2020                             *
********************************************************************************
*  optimise     - perform optimisation run                                     *
*  conp         - constant pressure calculation                                *
*  property     - calculate properties for final geometry                      *
*  phonon       - calculate phonons for final geometry                         *
*  compare      - compare initial and final structures                         *
********************************************************************************

  Job Started  at 02:00.30  3rd March      2021                               

  Number of CPUs =     1


  Total number of configurations input =      1

********************************************************************************
*  Input for Configuration =   1 : ex14                                        *
********************************************************************************

  Formula = Si3O6                                                       

  Number of irreducible atoms/shells =       3


  Total number atoms/shells =      15

  Dimensionality = 3               :  Bulk   


  Symmetry :

  Crystal family                   :  Hexagonal   
  Crystal class  (Groth - 1921)    :  Trigonal Trapezohedral               

  Space group (noncentrosymmetric) :  P 31 2 1        

  Patterson group                  :  P -3 m 1 

  Cartesian lattice vectors (Angstroms) :

        4.914730    0.000000    0.000000
       -2.457365    4.256281    0.000000
        0.000000    0.000000    5.406570

  Cell parameters (Angstroms/Degrees):

  a =       4.9147    alpha =  90.0000
  b =       4.9147    beta  =  90.0000
  c =       5.4066    gamma = 120.0000

  Initial cell volume =         113.097184 Angs**3

  Temperature of configuration =   0.00     K 

  Pressure of configuration =         0.000 GPa 

  Fractional coordinates of asymmetric unit :

--------------------------------------------------------------------------------
   No.  Atomic       x           y          z         Charge      Occupancy
        Label      (Frac)      (Frac)     (Frac)        (e)         (Frac)  
--------------------------------------------------------------------------------
      1 Si    c    0.468200 *  0.000000    0.333333     4.00000    1.000000    
      2 O     c    0.413100 *  0.266100 *  0.213100 *   0.86902    1.000000    
      3 O     s    0.431813 *  0.264902 *  0.204106 *  -2.86902    1.000000    
--------------------------------------------------------------------------------


  Constraints : 

--------------------------------------------------------------------------------
  Constraint no.      Unconstrained     Constrained    Coefficient    Offset
                         Variable         Variable
--------------------------------------------------------------------------------
           1              Strain 1        Strain 2       1.00000      0.0000
--------------------------------------------------------------------------------

  Brillouin zone sampling points :

--------------------------------------------------------------------------------
  Point number          x          y          z            Weight
--------------------------------------------------------------------------------
        1           0.000000   0.000000   0.000000     1.00000000
--------------------------------------------------------------------------------


********************************************************************************
*  General input information                                                   *
********************************************************************************

  Species output for all configurations : 

--------------------------------------------------------------------------------
  Species    Type    Atomic    Atomic    Charge       Radii (Angs)     Library
                     Number     Mass       (e)     Cova   Ionic  VDW   Symbol
--------------------------------------------------------------------------------
    Si       Core       14      28.09   4.000000   1.200  0.000  2.100          
    O        Core        8      16.00   0.869020   0.730  0.000  1.360          
    O        Shell       8       0.00  -2.869020   0.730  0.000  1.360          
--------------------------------------------------------------------------------


  Lattice summation method               =    Ewald          (3-D)
                                         =    Parry          (2-D)
                                         =    Saunders et al (1-D)
  Accuracy factor for lattice sums       =   12.000


  Analytic derivatives to be used

  Time limit = Infinity

  Maximum range for interatomic potentials =    100000.000000 Angstroms

  General interatomic potentials :

--------------------------------------------------------------------------------
Atom  Types   Potential      Parameter       Value         Units   Cutoffs(Ang)
  1     2                                                            Min /  Max 
--------------------------------------------------------------------------------
Si   c O    s Buckingham    Buckingham A     1316.0744    eV        0.000 12.000
                            Buckingham rho  0.32050000    Ang       
                            Buckingham C     10.660000    eV*Ang^6  
--------------------------------------------------------------------------------
O    s O    s Buckingham    Buckingham A     48952.591    eV        0.000 12.000
                            Buckingham rho  0.15320000    Ang       
                            Buckingham C     27.880000    eV*Ang^6  
--------------------------------------------------------------------------------
O    c O    s Spring (c-s)  Spring k 2       75.348200    eV*Ang^-2 0.000  0.800
                            Spring k 4       0.0000000    eV*Ang^-4 
--------------------------------------------------------------------------------

  General Three-body potentials :

--------------------------------------------------------------------------------
  Atoms       Potential      Parameter       Value         Units   Cutoffs(Ang)
  1 / 2 / 3                                                          Min /  Max 
--------------------------------------------------------------------------------
Si    core    Harmonic      Three-body cnst  2.4242000    eV*rad^-2 0.000  1.800
O     shel                  Three-body angl  105.51420    degrees   0.000  1.800
O     shel                  Three-body k4    0.0000000    eV*rad^-4 0.000  3.500
                            Three-body k3    0.0000000    eV*rad^-3 
--------------------------------------------------------------------------------

********************************************************************************
*  Output for configuration   1 : ex14                                         *
********************************************************************************


  Components of energy : 

--------------------------------------------------------------------------------
  Interatomic potentials     =         107.14306387 eV    
  Three-body potentials      =           0.17345593 eV    
  Monopole - monopole (real) =        -111.26563177 eV    
  Monopole - monopole (recip)=        -379.17637423 eV    
  Monopole - monopole (total)=        -490.44200600 eV    
--------------------------------------------------------------------------------
  Total lattice energy       =        -383.12548620 eV    
--------------------------------------------------------------------------------
  Total lattice energy       =          -36965.7528 kJ/(mole unit cells)
--------------------------------------------------------------------------------


  Number of variables =        9

  Maximum number of calculations  =          1000
  Maximum Hessian update interval =            10
  Maximum step size               =   1.000000000
  Maximum parameter tolerance     =   0.000010000
  Maximum function  tolerance     =   0.000010000
  Maximum gradient  tolerance     =   0.001000000
  Maximum gradient  component     =   0.010000000

  Symmetry constrained optimisation

  Symmetry used for second derivatives

  Cell parameters to be optimised using strains

  Newton-Raphson optimiser to be used

  BFGS hessian update to be used

  Lower half triangular hessian to be used

  Start of bulk optimisation :

  Cycle:      0 Energy:      -383.125486  Gnorm:      2.324873  CPU:    0.056
  ** Hessian calculated **
  Cycle:      1 Energy:      -383.173173  Gnorm:      1.441738  CPU:    0.060
  Cycle:      2 Energy:      -383.195654  Gnorm:      0.191233  CPU:    0.065
  Cycle:      3 Energy:      -383.196754  Gnorm:      0.075873  CPU:    0.069
  Cycle:      4 Energy:      -383.196805  Gnorm:      0.004494  CPU:    0.073


  **** Optimisation achieved ****


  Final energy =    -383.19681186 eV
  Final Gnorm  =       0.00017706

  Components of energy : 

--------------------------------------------------------------------------------
  Interatomic potentials     =         103.59410109 eV    
  Three-body potentials      =           0.15747601 eV    
  Monopole - monopole (real) =        -107.85394690 eV    
  Monopole - monopole (recip)=        -379.09444206 eV    
  Monopole - monopole (total)=        -486.94838896 eV    
--------------------------------------------------------------------------------
  Total lattice energy       =        -383.19681186 eV    
--------------------------------------------------------------------------------
  Total lattice energy       =          -36972.6346 kJ/(mole unit cells)
--------------------------------------------------------------------------------

  Final asymmetric unit coordinates :

--------------------------------------------------------------------------------
   No.  Atomic        x           y           z         Radius
        Label       (Frac)      (Frac)      (Frac)       (Angs) 
--------------------------------------------------------------------------------
     1  Si    c     0.466064    0.000000    0.333333    0.000000
     2  O     c     0.409776    0.274047    0.220699    0.000000
     3  O     s     0.428807    0.272356    0.210006    0.000000
--------------------------------------------------------------------------------

  Final Cartesian lattice vectors (Angstroms) :

        4.910338    0.000000    0.000000
       -2.455169    4.252477    0.000000
        0.000000    0.000000    5.416192


  Final cell parameters and derivatives :

--------------------------------------------------------------------------------
       a            4.910338 Angstrom     dE/de1(xx)    -0.000243 eV/strain
       b            4.910338 Angstrom     dE/de2(yy)     0.000000 eV/strain
       c            5.416192 Angstrom     dE/de3(zz)    -0.000464 eV/strain
       alpha       90.000000 Degrees      dE/de4(yz)     0.000000 eV/strain
       beta        90.000000 Degrees      dE/de5(xz)     0.000000 eV/strain
       gamma      120.000000 Degrees      dE/de6(xy)     0.000000 eV/strain
--------------------------------------------------------------------------------

  Primitive cell volume =           113.096049 Angs**3

  Density of cell =      2.646866 g/cm**3

  Non-primitive cell volume =           113.096049 Angs**3


  Final internal derivatives :

--------------------------------------------------------------------------------
   No.  Atomic          a             b             c           Radius
        Label          (eV)          (eV)          (eV)        (eV/Angs)
--------------------------------------------------------------------------------
      1 Si    c      -0.000517      0.000000      0.000000      0.000000
      2 O     c       0.000457     -0.000163      0.000781      0.000000
      3 O     s       0.000070     -0.000538     -0.000927      0.000000
--------------------------------------------------------------------------------
  Maximum abs         0.000517      0.000538      0.000927      0.000000
--------------------------------------------------------------------------------

  Comparison of initial and final structures : 

--------------------------------------------------------------------------------
  Parameter   Initial value   Final value   Difference    Units      Percent
--------------------------------------------------------------------------------
    Volume       113.097184    113.096049    -0.001134    Angs**3     -0.00
    a              4.914730      4.910338    -0.004392    Angstroms   -0.09
    b              4.914730      4.910338    -0.004392    Angstroms   -0.09
    c              5.406570      5.416192     0.009622    Angstroms    0.18
    alpha         90.000000     90.000000     0.000000    Degrees      0.00
    beta          90.000000     90.000000     0.000000    Degrees      0.00
    gamma        120.000000    120.000000     0.000000    Degrees      0.00
      1 x          0.468200      0.466064     0.002136    Fractional   0.46
      1 y          0.000000      0.000000     0.000000    Fractional   0.00
      1 z          0.333333      0.333333     0.000000    Fractional   0.00
      2 x          0.413100      0.409776     0.003324    Fractional   0.80
      2 y          0.266100      0.274047     0.007947    Fractional   2.99
      2 z          0.213100      0.220699     0.007599    Fractional   3.57
      3 x          0.431813      0.428807     0.003006    Fractional   0.70
      3 y          0.264902      0.272356     0.007454    Fractional   2.81
      3 z          0.204106      0.210006     0.005900    Fractional   2.89
--------------------------------------------------------------------------------


  Born effective charge tensors : 

-------------------------------------------------------------------------------
  Atom             x           y             z
-------------------------------------------------------------------------------
    1 Si    x       3.0906      0.0000      0.0000
            y       0.0000      3.4698      0.2808
            z       0.0000     -0.1590      3.3720
-------------------------------------------------------------------------------
    2 O     x      -1.3962      0.3487     -0.2335
            y       0.3460     -1.8840      0.4880
            z      -0.1615      0.5379     -1.6860
-------------------------------------------------------------------------------




  Elastic Constant Matrix: (Units=GPa)

-------------------------------------------------------------------------------
  Indices      1         2         3         4         5         6    
-------------------------------------------------------------------------------
       1     94.2433   14.4747   14.3813  -16.4698    0.0002   -0.0000
       2     14.4747   94.2433   14.3813   16.4698   -0.0002   -0.0000
       3     14.3813   14.3813  112.1268    0.0000   -0.0000   -0.0000
       4    -16.4698   16.4698    0.0000   49.6948    0.0000   -0.0002
       5      0.0002   -0.0002   -0.0000    0.0000   49.6948  -16.4698
       6     -0.0000   -0.0000   -0.0000   -0.0002  -16.4698   39.8843
-------------------------------------------------------------------------------


  Elastic Compliance Matrix: (Units=1/GPa)

-------------------------------------------------------------------------------
  Indices      1         2         3         4         5         6    
-------------------------------------------------------------------------------
       1    0.012023 -0.002501 -0.001221  0.004814 -0.000000  0.000000
       2   -0.002501  0.012023 -0.001221 -0.004814  0.000000  0.000000
       3   -0.001221 -0.001221  0.009232 -0.000000  0.000000 -0.000000
       4    0.004814 -0.004814 -0.000000  0.023313 -0.000000  0.000000
       5   -0.000000  0.000000  0.000000 -0.000000  0.023313  0.009627
       6    0.000000  0.000000 -0.000000  0.000000  0.009627  0.029048
-------------------------------------------------------------------------------

  Mechanical properties :

-------------------------------------------------------------------------------
  Convention :                    Reuss         Voigt         Hill
-------------------------------------------------------------------------------
  Bulk  Modulus (GPa)     =      42.75442      43.00976      42.88209
  Shear Modulus (GPa)     =      39.48343      45.01321      42.24832
-------------------------------------------------------------------------------
  Velocity S-wave (km/s)  =       3.86226       4.12386       3.99520
  Velocity P-wave (km/s)  =       6.00352       6.23893       6.12236
-------------------------------------------------------------------------------
  Compressibility (1/GPa) =    0.02338939
-------------------------------------------------------------------------------
  Stress axis :                     x             y             z
-------------------------------------------------------------------------------
  Youngs Moduli (GPa)     =      83.17699      83.17699     108.32210
-------------------------------------------------------------------------------
  Poissons Ratio (x)      =                     0.20806       0.13228
  Poissons Ratio (y)      =       0.20806                     0.13228
  Poissons Ratio (z)      =       0.10157       0.10157
-------------------------------------------------------------------------------


  Piezoelectric Strain Matrix: (Units=C/m**2)

-------------------------------------------------------------------------------
  Indices      1         2         3         4         5         6    
-------------------------------------------------------------------------------
       x     2.56432  -2.56432  -0.00000  -1.07236   0.00006   0.00001
       y     0.00001  -0.00001  -0.00000   0.00006   1.07236  -2.56432
       z    -0.00004  -0.00004   0.00010   0.00000   0.00000  -0.00000
-------------------------------------------------------------------------------


  Piezoelectric Stress Matrix: (Units=10**-11 C/N)

-------------------------------------------------------------------------------
  Indices      1         2         3         4         5         6    
-------------------------------------------------------------------------------
       x     3.20821  -3.20821  -0.00000  -0.03137   0.00012   0.00006
       y     0.00003  -0.00003  -0.00000   0.00012   0.03137  -6.41643
       z    -0.00005  -0.00005   0.00010   0.00000   0.00000  -0.00000
-------------------------------------------------------------------------------


  Static dielectric constant tensor : 

-------------------------------------------------------------------------------
              x         y         z
-------------------------------------------------------------------------------
       x     4.36527  -0.00000  -0.00000
       y    -0.00000   4.36527   0.00000
       z    -0.00000   0.00000   4.65130
--------------------------------------------------------------------------------

  High frequency dielectric constant tensor : 

-------------------------------------------------------------------------------
              x         y         z
-------------------------------------------------------------------------------
       x     2.04155  -0.00000   0.00000
       y    -0.00000   2.04155  -0.00000
       z     0.00000  -0.00000   2.06181
-------------------------------------------------------------------------------

  Static refractive indices : 

-------------------------------------------------------------------------------
    1 =    2.08932      2 =    2.08932      3 =    2.15669
-------------------------------------------------------------------------------

  High frequency refractive indices : 

-------------------------------------------------------------------------------
    1 =    1.42883      2 =    1.42883      3 =    1.43590
-------------------------------------------------------------------------------


  Phonon Calculation : 

  Number of k points for this configuration =        1

--------------------------------------------------------------------------------
  K point      1 =   0.000000  0.000000  0.000000  Weight =    1.000
--------------------------------------------------------------------------------

  Frequencies (cm-1) [NB: Negative implies an imaginary mode]:

   -0.00   -0.00    0.00  145.28  145.28  220.17  273.43  273.43  333.64
  348.47  400.61  400.61  441.54  441.54  466.64  503.43  715.74  715.74
  818.77  818.77  819.98  910.80  911.31  911.31  922.33 1020.17 1020.17


--------------------------------------------------------------------------------
  Phonon properties (per mole of unit cells): Temperature =      0.000 K
--------------------------------------------------------------------------------
  Zero point energy            =        0.866602 eV
--------------------------------------------------------------------------------

  Phonon density of states : 

--------------------------------------------------------------------------------
 Frequency (cm-1) Density of States                                             
--------------------------------------------------------------------------------
    0.00000 |***************                                               0.040
   15.94018 |                                                              0.000
   31.88036 |                                                              0.000
   47.82054 |                                                              0.000
   63.76072 |                                                              0.000
   79.70091 |                                                              0.000
   95.64109 |                                                              0.000
  111.58127 |                                                              0.000
  127.52145 |                                                              0.000
  143.46163 |******************************                                0.080
  159.40181 |                                                              0.000
  175.34199 |                                                              0.000
  191.28217 |                                                              0.000
  207.22235 |***************                                               0.040
  223.16253 |                                                              0.000
  239.10272 |                                                              0.000
  255.04290 |                                                              0.000
  270.98308 |******************************                                0.080
  286.92326 |                                                              0.000
  302.86344 |                                                              0.000
  318.80362 |***************                                               0.040
  334.74380 |***************                                               0.040
  350.68398 |                                                              0.000
  366.62416 |                                                              0.000
  382.56435 |                                                              0.000
  398.50453 |******************************                                0.080
  414.44471 |                                                              0.000
  430.38489 |******************************                                0.080
  446.32507 |                                                              0.000
  462.26525 |***************                                               0.040
  478.20543 |                                                              0.000
  494.14561 |***************                                               0.040
  510.08579 |                                                              0.000
  526.02597 |                                                              0.000
  541.96616 |                                                              0.000
  557.90634 |                                                              0.000
  573.84652 |                                                              0.000
  589.78670 |                                                              0.000
  605.72688 |                                                              0.000
  621.66706 |                                                              0.000
  637.60724 |                                                              0.000
  653.54742 |                                                              0.000
  669.48760 |                                                              0.000
  685.42779 |                                                              0.000
  701.36797 |******************************                                0.080
  717.30815 |                                                              0.000
  733.24833 |                                                              0.000
  749.18851 |                                                              0.000
  765.12869 |                                                              0.000
  781.06887 |                                                              0.000
  797.00905 |                                                              0.000
  812.94923 |*********************************************                 0.120
  828.88941 |                                                              0.000
  844.82960 |                                                              0.000
  860.76978 |                                                              0.000
  876.70996 |                                                              0.000
  892.65014 |                                                              0.000
  908.59032 |************************************************************  0.160
  924.53050 |                                                              0.000
  940.47068 |                                                              0.000
  956.41086 |                                                              0.000
  972.35104 |                                                              0.000
  988.29123 |                                                              0.000
 1004.23141 |******************************                                0.080
--------------------------------------------------------------------------------



  Time to end of optimisation =       0.0988 seconds


  Peak dynamic memory used =       1.88 MB 


  Timing analysis for GULP :

--------------------------------------------------------------------------------
  Task / Subroutine                                          Time (Seconds)
--------------------------------------------------------------------------------
  Calculation of reciprocal space energy and derivatives          0.0028
  Calculation of reciprocal space energy using symmetry           0.0042
  Calculation of real space energy and derivatives                0.0125
  Calculation of real space energy using symmetry                 0.0210
  Calculation of three-body energy and derivatives                0.0043
  Calculation of phonons                                          0.0053
  Symmetry generation of equivalent positions                     0.0034
--------------------------------------------------------------------------------
  Total CPU time                                                  0.0989
--------------------------------------------------------------------------------


  Dump file written as example14.grs


  Job Finished at 02:00.30  3rd March      2021                               

